# vtk DataFile Version 2.0
Ray Path Visualization
ASCII
DATASET POLYDATA

POINTS 12 float
 0 0 5
 0.702505 0 -8.88178e-16
 0.702505 0 -8.88178e-16
 0.702505 0 0
 0.702505 0 0
 13.9205 0 99.0274
 0 0 5
 0.702505 0 -8.88178e-16
 0.702505 0 -8.88178e-16
 0.702505 0 0
 0.702505 0 0
 13.9205 0 -99.0274
LINES 6 18
 2 0 1
 2 2 3
 2 4 5
 2 6 7
 2 8 9
 2 10 11
CELL_DATA 6
FIELD FieldData 1
NumRefl 1 6 int
0
1
2
3
4
5