# vtk DataFile Version 2.0
3D model of edge geometry
ASCII

DATASET POLYDATA
POINTS 4 float
 -10 -10 0
 10 -10 0
 10 10 0
 -10 10 0

LINES 5 15
 2 0 1
 2 1 2
 2 2 0
 2 2 3
 2 3 0

CELL_DATA 5
FIELD FieldData 3
EdgeID 1 5 int
 0
 1
 2
 3
 4
Connection 1 5 int
 1
 1
 2
 1
 1
IsDiffract 1 5 int
 0
 0
 0
 0
 0
