# vtk DataFile Version 2.0
3D model of face geometry
ASCII

DATASET POLYDATA
POINTS 4 float
 -10 -10 0
 10 -10 0
 10 10 0
 -10 10 0
POLYGONS 2 8
 3 0 1 2
 3 0 2 3
CELL_DATA 2
FIELD FieldData 3
FaceID 1 2 int
 0
 1
CoplanerID 1 2 int
 0
 0
MaterialID 1 2 int
 0
 0
