# vtk DataFile Version 2.0
3D model of raytube
ASCII
DATASET POLYDATA

POINTS 110 float
 0 0 5
 0 0 15
 8.94427 0 9.47214
 2.76393 8.50651 9.47214
 0 0 5
 0 0 15
 2.76393 8.50651 9.47214
 -7.23607 5.25731 9.47214
 0 0 5
 0 0 15
 -7.23607 5.25731 9.47214
 -7.23607 -5.25731 9.47214
 0 0 5
 0 0 15
 -7.23607 -5.25731 9.47214
 2.76393 -8.50651 9.47214
 0 0 5
 0 0 15
 2.76393 -8.50651 9.47214
 8.94427 0 9.47214
 0 0 5
 8.94427 0 9.47214
 7.23607 5.25731 0.527864
 2.76393 8.50651 9.47214
 0 0 5
 2.76393 8.50651 9.47214
 7.23607 5.25731 0.527864
 -2.76393 8.50651 0.527864
 0 0 5
 2.76393 8.50651 9.47214
 -2.76393 8.50651 0.527864
 -7.23607 5.25731 9.47214
 0 0 5
 -7.23607 5.25731 9.47214
 -2.76393 8.50651 0.527864
 -8.94427 0 0.527864
 0 0 5
 -7.23607 5.25731 9.47214
 -8.94427 0 0.527864
 -7.23607 -5.25731 9.47214
 0 0 5
 -7.23607 -5.25731 9.47214
 -8.94427 0 0.527864
 -2.76393 -8.50651 0.527864
 0 0 5
 -7.23607 -5.25731 9.47214
 -2.76393 -8.50651 0.527864
 2.76393 -8.50651 9.47214
 0 0 5
 2.76393 -8.50651 9.47214
 -2.76393 -8.50651 0.527864
 7.23607 -5.25731 0.527864
 0 0 5
 2.76393 -8.50651 9.47214
 7.23607 -5.25731 0.527864
 8.94427 0 9.47214
 0 0 5
 8.94427 0 9.47214
 7.23607 -5.25731 0.527864
 7.23607 5.25731 0.527864
 0 0 5
 0 0 0
 -3.09017 9.51057 0
 8.09017 5.87785 0
 0 0 5
 0 0 0
 -10 0 0
 -3.09017 9.51057 0
 0 0 5
 0 0 0
 -3.09017 -9.51057 0
 -10 0 0
 0 0 5
 0 0 0
 8.09017 -5.87785 0
 -3.09017 -9.51057 0
 0 0 5
 0 0 0
 8.09017 5.87785 0
 8.09017 -5.87785 0
 0 0 0
 8.09017 5.87785 0
 -3.09017 9.51057 0
 0 0 10
 15.3262 11.1352 4.47214
 -5.8541 18.0171 4.47214
 0 0 0
 -3.09017 9.51057 0
 -10 0 0
 0 0 10
 -5.8541 18.0171 4.47214
 -18.9443 0 4.47214
 0 0 0
 -10 0 0
 -3.09017 -9.51057 0
 0 0 10
 -18.9443 0 4.47214
 -5.8541 -18.0171 4.47214
 0 0 0
 -3.09017 -9.51057 0
 8.09017 -5.87785 0
 0 0 10
 -5.8541 -18.0171 4.47214
 15.3262 -11.1352 4.47214
 0 0 0
 8.09017 -5.87785 0
 8.09017 5.87785 0
 0 0 10
 15.3262 -11.1352 4.47214
 15.3262 11.1352 4.47214

POLYGONS 105 435
 3 1 2 3
 3 0 1 2
 3 0 2 3
 3 0 3 1
 3 5 6 7
 3 4 5 6
 3 4 6 7
 3 4 7 5
 3 9 10 11
 3 8 9 10
 3 8 10 11
 3 8 11 9
 3 13 14 15
 3 12 13 14
 3 12 14 15
 3 12 15 13
 3 17 18 19
 3 16 17 18
 3 16 18 19
 3 16 19 17
 3 21 22 23
 3 20 21 22
 3 20 22 23
 3 20 23 21
 3 25 26 27
 3 24 25 26
 3 24 26 27
 3 24 27 25
 3 29 30 31
 3 28 29 30
 3 28 30 31
 3 28 31 29
 3 33 34 35
 3 32 33 34
 3 32 34 35
 3 32 35 33
 3 37 38 39
 3 36 37 38
 3 36 38 39
 3 36 39 37
 3 41 42 43
 3 40 41 42
 3 40 42 43
 3 40 43 41
 3 45 46 47
 3 44 45 46
 3 44 46 47
 3 44 47 45
 3 49 50 51
 3 48 49 50
 3 48 50 51
 3 48 51 49
 3 53 54 55
 3 52 53 54
 3 52 54 55
 3 52 55 53
 3 57 58 59
 3 56 57 58
 3 56 58 59
 3 56 59 57
 3 61 62 63
 3 60 61 62
 3 60 62 63
 3 60 63 61
 3 65 66 67
 3 64 65 66
 3 64 66 67
 3 64 67 65
 3 69 70 71
 3 68 69 70
 3 68 70 71
 3 68 71 69
 3 73 74 75
 3 72 73 74
 3 72 74 75
 3 72 75 73
 3 77 78 79
 3 76 77 78
 3 76 78 79
 3 76 79 77
 3 80 81 82
 3 85 84 83
 4 80 83 84 81
 4 81 84 85 82
 4 82 85 83 80
 3 86 87 88
 3 91 90 89
 4 86 89 90 87
 4 87 90 91 88
 4 88 91 89 86
 3 92 93 94
 3 97 96 95
 4 92 95 96 93
 4 93 96 97 94
 4 94 97 95 92
 3 98 99 100
 3 103 102 101
 4 98 101 102 99
 4 99 102 103 100
 4 100 103 101 98
 3 104 105 106
 3 109 108 107
 4 104 107 108 105
 4 105 108 109 106
 4 106 109 107 104

CELL_DATA 105
FIELD FieldData 4
LaunchID 1 105 int
 0
 0
 0
 0
 1
 1
 1
 1
 2
 2
 2
 2
 3
 3
 3
 3
 4
 4
 4
 4
 5
 5
 5
 5
 6
 6
 6
 6
 7
 7
 7
 7
 8
 8
 8
 8
 9
 9
 9
 9
 10
 10
 10
 10
 11
 11
 11
 11
 12
 12
 12
 12
 13
 13
 13
 13
 14
 14
 14
 14
 15
 15
 15
 15
 16
 16
 16
 16
 17
 17
 17
 17
 18
 18
 18
 18
 19
 19
 19
 19
 15
 15
 15
 15
 15
 16
 16
 16
 16
 16
 17
 17
 17
 17
 17
 18
 18
 18
 18
 18
 19
 19
 19
 19
 19
TubeID 1 105 int
 0
 0
 0
 0
 1
 1
 1
 1
 2
 2
 2
 2
 3
 3
 3
 3
 4
 4
 4
 4
 5
 5
 5
 5
 6
 6
 6
 6
 7
 7
 7
 7
 8
 8
 8
 8
 9
 9
 9
 9
 10
 10
 10
 10
 11
 11
 11
 11
 12
 12
 12
 12
 13
 13
 13
 13
 14
 14
 14
 14
 15
 15
 15
 15
 16
 16
 16
 16
 17
 17
 17
 17
 18
 18
 18
 18
 19
 19
 19
 19
 20
 20
 20
 20
 20
 21
 21
 21
 21
 21
 22
 22
 22
 22
 22
 23
 23
 23
 23
 23
 24
 24
 24
 24
 24
IsBound 1 105 bit
 0
 0
 0
 0
 0
 0
 0
 0
 0
 0
 0
 0
 0
 0
 0
 0
 0
 0
 0
 0
 0
 0
 0
 0
 0
 0
 0
 0
 0
 0
 0
 0
 0
 0
 0
 0
 0
 0
 0
 0
 0
 0
 0
 0
 0
 0
 0
 0
 0
 0
 0
 0
 0
 0
 0
 0
 0
 0
 0
 0
 1
 1
 1
 1
 1
 1
 1
 1
 1
 1
 1
 1
 1
 1
 1
 1
 1
 1
 1
 1
 0
 0
 0
 0
 0
 0
 0
 0
 0
 0
 0
 0
 0
 0
 0
 0
 0
 0
 0
 0
 0
 0
 0
 0
 0
IsComplex 1 105 bit
 0
 0
 0
 0
 0
 0
 0
 0
 0
 0
 0
 0
 0
 0
 0
 0
 0
 0
 0
 0
 1
 1
 1
 1
 1
 1
 1
 1
 1
 1
 1
 1
 1
 1
 1
 1
 1
 1
 1
 1
 1
 1
 1
 1
 1
 1
 1
 1
 1
 1
 1
 1
 1
 1
 1
 1
 1
 1
 1
 1
 0
 0
 0
 0
 0
 0
 0
 0
 0
 0
 0
 0
 0
 0
 0
 0
 0
 0
 0
 0
 0
 0
 0
 0
 0
 0
 0
 0
 0
 0
 0
 0
 0
 0
 0
 0
 0
 0
 0
 0
 0
 0
 0
 0
 0
