# vtk DataFile Version 2.0
receivers generated by ray-launching solver
ASCII
DATASET POLYDATA

POINTS 400 float
 -10 -10 3
 -10 -9 3
 -10 -8 3
 -10 -7 3
 -10 -6 3
 -10 -5 3
 -10 -4 3
 -10 -3 3
 -10 -2 3
 -10 -1 3
 -10 0 3
 -10 1 3
 -10 2 3
 -10 3 3
 -10 4 3
 -10 5 3
 -10 6 3
 -10 7 3
 -10 8 3
 -10 9 3
 -9 -10 3
 -9 -9 3
 -9 -8 3
 -9 -7 3
 -9 -6 3
 -9 -5 3
 -9 -4 3
 -9 -3 3
 -9 -2 3
 -9 -1 3
 -9 0 3
 -9 1 3
 -9 2 3
 -9 3 3
 -9 4 3
 -9 5 3
 -9 6 3
 -9 7 3
 -9 8 3
 -9 9 3
 -8 -10 3
 -8 -9 3
 -8 -8 3
 -8 -7 3
 -8 -6 3
 -8 -5 3
 -8 -4 3
 -8 -3 3
 -8 -2 3
 -8 -1 3
 -8 0 3
 -8 1 3
 -8 2 3
 -8 3 3
 -8 4 3
 -8 5 3
 -8 6 3
 -8 7 3
 -8 8 3
 -8 9 3
 -7 -10 3
 -7 -9 3
 -7 -8 3
 -7 -7 3
 -7 -6 3
 -7 -5 3
 -7 -4 3
 -7 -3 3
 -7 -2 3
 -7 -1 3
 -7 0 3
 -7 1 3
 -7 2 3
 -7 3 3
 -7 4 3
 -7 5 3
 -7 6 3
 -7 7 3
 -7 8 3
 -7 9 3
 -6 -10 3
 -6 -9 3
 -6 -8 3
 -6 -7 3
 -6 -6 3
 -6 -5 3
 -6 -4 3
 -6 -3 3
 -6 -2 3
 -6 -1 3
 -6 0 3
 -6 1 3
 -6 2 3
 -6 3 3
 -6 4 3
 -6 5 3
 -6 6 3
 -6 7 3
 -6 8 3
 -6 9 3
 -5 -10 3
 -5 -9 3
 -5 -8 3
 -5 -7 3
 -5 -6 3
 -5 -5 3
 -5 -4 3
 -5 -3 3
 -5 -2 3
 -5 -1 3
 -5 0 3
 -5 1 3
 -5 2 3
 -5 3 3
 -5 4 3
 -5 5 3
 -5 6 3
 -5 7 3
 -5 8 3
 -5 9 3
 -4 -10 3
 -4 -9 3
 -4 -8 3
 -4 -7 3
 -4 -6 3
 -4 -5 3
 -4 -4 3
 -4 -3 3
 -4 -2 3
 -4 -1 3
 -4 0 3
 -4 1 3
 -4 2 3
 -4 3 3
 -4 4 3
 -4 5 3
 -4 6 3
 -4 7 3
 -4 8 3
 -4 9 3
 -3 -10 3
 -3 -9 3
 -3 -8 3
 -3 -7 3
 -3 -6 3
 -3 -5 3
 -3 -4 3
 -3 -3 3
 -3 -2 3
 -3 -1 3
 -3 0 3
 -3 1 3
 -3 2 3
 -3 3 3
 -3 4 3
 -3 5 3
 -3 6 3
 -3 7 3
 -3 8 3
 -3 9 3
 -2 -10 3
 -2 -9 3
 -2 -8 3
 -2 -7 3
 -2 -6 3
 -2 -5 3
 -2 -4 3
 -2 -3 3
 -2 -2 3
 -2 -1 3
 -2 0 3
 -2 1 3
 -2 2 3
 -2 3 3
 -2 4 3
 -2 5 3
 -2 6 3
 -2 7 3
 -2 8 3
 -2 9 3
 -1 -10 3
 -1 -9 3
 -1 -8 3
 -1 -7 3
 -1 -6 3
 -1 -5 3
 -1 -4 3
 -1 -3 3
 -1 -2 3
 -1 -1 3
 -1 0 3
 -1 1 3
 -1 2 3
 -1 3 3
 -1 4 3
 -1 5 3
 -1 6 3
 -1 7 3
 -1 8 3
 -1 9 3
 0 -10 3
 0 -9 3
 0 -8 3
 0 -7 3
 0 -6 3
 0 -5 3
 0 -4 3
 0 -3 3
 0 -2 3
 0 -1 3
 0 0 3
 0 1 3
 0 2 3
 0 3 3
 0 4 3
 0 5 3
 0 6 3
 0 7 3
 0 8 3
 0 9 3
 1 -10 3
 1 -9 3
 1 -8 3
 1 -7 3
 1 -6 3
 1 -5 3
 1 -4 3
 1 -3 3
 1 -2 3
 1 -1 3
 1 0 3
 1 1 3
 1 2 3
 1 3 3
 1 4 3
 1 5 3
 1 6 3
 1 7 3
 1 8 3
 1 9 3
 2 -10 3
 2 -9 3
 2 -8 3
 2 -7 3
 2 -6 3
 2 -5 3
 2 -4 3
 2 -3 3
 2 -2 3
 2 -1 3
 2 0 3
 2 1 3
 2 2 3
 2 3 3
 2 4 3
 2 5 3
 2 6 3
 2 7 3
 2 8 3
 2 9 3
 3 -10 3
 3 -9 3
 3 -8 3
 3 -7 3
 3 -6 3
 3 -5 3
 3 -4 3
 3 -3 3
 3 -2 3
 3 -1 3
 3 0 3
 3 1 3
 3 2 3
 3 3 3
 3 4 3
 3 5 3
 3 6 3
 3 7 3
 3 8 3
 3 9 3
 4 -10 3
 4 -9 3
 4 -8 3
 4 -7 3
 4 -6 3
 4 -5 3
 4 -4 3
 4 -3 3
 4 -2 3
 4 -1 3
 4 0 3
 4 1 3
 4 2 3
 4 3 3
 4 4 3
 4 5 3
 4 6 3
 4 7 3
 4 8 3
 4 9 3
 5 -10 3
 5 -9 3
 5 -8 3
 5 -7 3
 5 -6 3
 5 -5 3
 5 -4 3
 5 -3 3
 5 -2 3
 5 -1 3
 5 0 3
 5 1 3
 5 2 3
 5 3 3
 5 4 3
 5 5 3
 5 6 3
 5 7 3
 5 8 3
 5 9 3
 6 -10 3
 6 -9 3
 6 -8 3
 6 -7 3
 6 -6 3
 6 -5 3
 6 -4 3
 6 -3 3
 6 -2 3
 6 -1 3
 6 0 3
 6 1 3
 6 2 3
 6 3 3
 6 4 3
 6 5 3
 6 6 3
 6 7 3
 6 8 3
 6 9 3
 7 -10 3
 7 -9 3
 7 -8 3
 7 -7 3
 7 -6 3
 7 -5 3
 7 -4 3
 7 -3 3
 7 -2 3
 7 -1 3
 7 0 3
 7 1 3
 7 2 3
 7 3 3
 7 4 3
 7 5 3
 7 6 3
 7 7 3
 7 8 3
 7 9 3
 8 -10 3
 8 -9 3
 8 -8 3
 8 -7 3
 8 -6 3
 8 -5 3
 8 -4 3
 8 -3 3
 8 -2 3
 8 -1 3
 8 0 3
 8 1 3
 8 2 3
 8 3 3
 8 4 3
 8 5 3
 8 6 3
 8 7 3
 8 8 3
 8 9 3
 9 -10 3
 9 -9 3
 9 -8 3
 9 -7 3
 9 -6 3
 9 -5 3
 9 -4 3
 9 -3 3
 9 -2 3
 9 -1 3
 9 0 3
 9 1 3
 9 2 3
 9 3 3
 9 4 3
 9 5 3
 9 6 3
 9 7 3
 9 8 3
 9 9 3

VERTICES 1 401
400
 0 1 2 3 4
 5 6 7 8 9
 10 11 12 13 14
 15 16 17 18 19
 20 21 22 23 24
 25 26 27 28 29
 30 31 32 33 34
 35 36 37 38 39
 40 41 42 43 44
 45 46 47 48 49
 50 51 52 53 54
 55 56 57 58 59
 60 61 62 63 64
 65 66 67 68 69
 70 71 72 73 74
 75 76 77 78 79
 80 81 82 83 84
 85 86 87 88 89
 90 91 92 93 94
 95 96 97 98 99
 100 101 102 103 104
 105 106 107 108 109
 110 111 112 113 114
 115 116 117 118 119
 120 121 122 123 124
 125 126 127 128 129
 130 131 132 133 134
 135 136 137 138 139
 140 141 142 143 144
 145 146 147 148 149
 150 151 152 153 154
 155 156 157 158 159
 160 161 162 163 164
 165 166 167 168 169
 170 171 172 173 174
 175 176 177 178 179
 180 181 182 183 184
 185 186 187 188 189
 190 191 192 193 194
 195 196 197 198 199
 200 201 202 203 204
 205 206 207 208 209
 210 211 212 213 214
 215 216 217 218 219
 220 221 222 223 224
 225 226 227 228 229
 230 231 232 233 234
 235 236 237 238 239
 240 241 242 243 244
 245 246 247 248 249
 250 251 252 253 254
 255 256 257 258 259
 260 261 262 263 264
 265 266 267 268 269
 270 271 272 273 274
 275 276 277 278 279
 280 281 282 283 284
 285 286 287 288 289
 290 291 292 293 294
 295 296 297 298 299
 300 301 302 303 304
 305 306 307 308 309
 310 311 312 313 314
 315 316 317 318 319
 320 321 322 323 324
 325 326 327 328 329
 330 331 332 333 334
 335 336 337 338 339
 340 341 342 343 344
 345 346 347 348 349
 350 351 352 353 354
 355 356 357 358 359
 360 361 362 363 364
 365 366 367 368 369
 370 371 372 373 374
 375 376 377 378 379
 380 381 382 383 384
 385 386 387 388 389
 390 391 392 393 394
 395 396 397 398 399


POINT_DATA 400
FIELD FieldData 3
ReceiverID 1 400 int
 0
 1
 2
 3
 4
 5
 6
 7
 8
 9
 10
 11
 12
 13
 14
 15
 16
 17
 18
 19
 20
 21
 22
 23
 24
 25
 26
 27
 28
 29
 30
 31
 32
 33
 34
 35
 36
 37
 38
 39
 40
 41
 42
 43
 44
 45
 46
 47
 48
 49
 50
 51
 52
 53
 54
 55
 56
 57
 58
 59
 60
 61
 62
 63
 64
 65
 66
 67
 68
 69
 70
 71
 72
 73
 74
 75
 76
 77
 78
 79
 80
 81
 82
 83
 84
 85
 86
 87
 88
 89
 90
 91
 92
 93
 94
 95
 96
 97
 98
 99
 100
 101
 102
 103
 104
 105
 106
 107
 108
 109
 110
 111
 112
 113
 114
 115
 116
 117
 118
 119
 120
 121
 122
 123
 124
 125
 126
 127
 128
 129
 130
 131
 132
 133
 134
 135
 136
 137
 138
 139
 140
 141
 142
 143
 144
 145
 146
 147
 148
 149
 150
 151
 152
 153
 154
 155
 156
 157
 158
 159
 160
 161
 162
 163
 164
 165
 166
 167
 168
 169
 170
 171
 172
 173
 174
 175
 176
 177
 178
 179
 180
 181
 182
 183
 184
 185
 186
 187
 188
 189
 190
 191
 192
 193
 194
 195
 196
 197
 198
 199
 200
 201
 202
 203
 204
 205
 206
 207
 208
 209
 210
 211
 212
 213
 214
 215
 216
 217
 218
 219
 220
 221
 222
 223
 224
 225
 226
 227
 228
 229
 230
 231
 232
 233
 234
 235
 236
 237
 238
 239
 240
 241
 242
 243
 244
 245
 246
 247
 248
 249
 250
 251
 252
 253
 254
 255
 256
 257
 258
 259
 260
 261
 262
 263
 264
 265
 266
 267
 268
 269
 270
 271
 272
 273
 274
 275
 276
 277
 278
 279
 280
 281
 282
 283
 284
 285
 286
 287
 288
 289
 290
 291
 292
 293
 294
 295
 296
 297
 298
 299
 300
 301
 302
 303
 304
 305
 306
 307
 308
 309
 310
 311
 312
 313
 314
 315
 316
 317
 318
 319
 320
 321
 322
 323
 324
 325
 326
 327
 328
 329
 330
 331
 332
 333
 334
 335
 336
 337
 338
 339
 340
 341
 342
 343
 344
 345
 346
 347
 348
 349
 350
 351
 352
 353
 354
 355
 356
 357
 358
 359
 360
 361
 362
 363
 364
 365
 366
 367
 368
 369
 370
 371
 372
 373
 374
 375
 376
 377
 378
 379
 380
 381
 382
 383
 384
 385
 386
 387
 388
 389
 390
 391
 392
 393
 394
 395
 396
 397
 398
 399
PowerdBm 1 400 float
 -28.6495
 -28.225
 -23.6107
 -29.5091
 -22.502
 -28.2214
 -23.3526
 -21.9534
 -32.7688
 -30.2235
 -26.7422
 -30.2235
 -32.7688
 -21.9534
 -23.3526
 -28.2214
 -22.502
 -29.5091
 -23.6107
 -28.225
 -28.225
 -22.807
 -42.1357
 -22.3146
 -24.6542
 -25.9263
 -21.6267
 -24.7452
 -26.7577
 -20.7203
 -20.0705
 -20.7203
 -26.7577
 -24.7452
 -21.6267
 -25.9263
 -24.6542
 -22.3146
 -42.1357
 -22.807
 -23.6107
 -42.1357
 -23.6889
 -21.2776
 -26.7422
 -27.7457
 -19.9239
 -29.5353
 -19.4136
 -24.4101
 -29.7366
 -24.4101
 -19.4136
 -29.5353
 -19.9239
 -27.7457
 -26.7422
 -21.2776
 -23.6889
 -42.1357
 -29.5091
 -22.3146
 -21.2776
 -22.7596
 -26.7577
 -36.2416
 -24.4101
 -18.9101
 -26.6226
 -18.3655
 -18.8561
 -18.3655
 -26.6226
 -18.9101
 -24.4101
 -36.2416
 -26.7577
 -22.7596
 -21.2776
 -22.3146
 -22.502
 -24.6542
 -26.7422
 -26.7577
 -24.8003
 -22.6504
 -21.69
 -23.9327
 -26.5496
 -17.865
 -17.5393
 -17.865
 -26.5496
 -23.9327
 -21.69
 -22.6504
 -24.8003
 -26.7577
 -26.7422
 -24.6542
 -28.2214
 -25.9263
 -27.7457
 -36.2416
 -22.6504
 -18.3655
 -20.5194
 -26.9908
 -25.3783
 -16.6176
 -20.645
 -16.6176
 -25.3783
 -26.9908
 -20.5194
 -18.3655
 -22.6504
 -36.2416
 -27.7457
 -25.9263
 -23.3526
 -21.6267
 -19.9239
 -24.4101
 -21.69
 -20.5194
 -18.614
 -20.645
 -22.4578
 -24.6935
 -15.9088
 -24.6935
 -22.4578
 -20.645
 -18.614
 -20.5194
 -21.69
 -24.4101
 -19.9239
 -21.6267
 -21.9534
 -24.7452
 -29.5353
 -18.9101
 -23.9327
 -26.9908
 -20.645
 -17.142
 -14.7063
 -15.1722
 -18.2865
 -15.1722
 -14.7063
 -17.142
 -20.645
 -26.9908
 -23.9327
 -18.9101
 -29.5353
 -24.7452
 -32.7688
 -26.7577
 -19.4136
 -26.6226
 -26.5496
 -25.3783
 -22.4578
 -14.7063
 -14.1827
 -13.0656
 -18.0824
 -13.0656
 -14.1827
 -14.7063
 -22.4578
 -25.3783
 -26.5496
 -26.6226
 -19.4136
 -26.7577
 -30.2235
 -20.7203
 -24.4101
 -18.3655
 -17.865
 -16.6176
 -24.6935
 -15.1722
 -13.0656
 -11.216
 -10.4378
 -11.216
 -13.0656
 -15.1722
 -24.6935
 -16.6176
 -17.865
 -18.3655
 -24.4101
 -20.7203
 -26.7422
 -20.0705
 -29.7366
 -18.8561
 -17.5393
 -20.645
 -15.9088
 -18.2865
 -18.0824
 -10.4378
 -9.66497
 -10.4378
 -18.0824
 -18.2865
 -15.9088
 -20.645
 -17.5393
 -18.8561
 -29.7366
 -20.0705
 -30.2235
 -20.7203
 -24.4101
 -18.3655
 -17.865
 -16.6176
 -24.6935
 -15.1722
 -13.0656
 -11.216
 -10.4378
 -11.216
 -13.0656
 -15.1722
 -24.6935
 -16.6176
 -17.865
 -18.3655
 -24.4101
 -20.7203
 -32.7688
 -26.7577
 -19.4136
 -26.6226
 -26.5496
 -25.3783
 -22.4578
 -14.7063
 -14.1827
 -13.0656
 -18.0824
 -13.0656
 -14.1827
 -14.7063
 -22.4578
 -25.3783
 -26.5496
 -26.6226
 -19.4136
 -26.7577
 -21.9534
 -24.7452
 -29.5353
 -18.9101
 -23.9327
 -26.9908
 -20.645
 -17.142
 -14.7063
 -15.1722
 -18.2865
 -15.1722
 -14.7063
 -17.142
 -20.645
 -26.9908
 -23.9327
 -18.9101
 -29.5353
 -24.7452
 -23.3526
 -21.6267
 -19.9239
 -24.4101
 -21.69
 -20.5194
 -18.614
 -20.645
 -22.4578
 -24.6935
 -15.9088
 -24.6935
 -22.4578
 -20.645
 -18.614
 -20.5194
 -21.69
 -24.4101
 -19.9239
 -21.6267
 -28.2214
 -25.9263
 -27.7457
 -36.2416
 -22.6504
 -18.3655
 -20.5194
 -26.9908
 -25.3783
 -16.6176
 -20.645
 -16.6176
 -25.3783
 -26.9908
 -20.5194
 -18.3655
 -22.6504
 -36.2416
 -27.7457
 -25.9263
 -22.502
 -24.6542
 -26.7422
 -26.7577
 -24.8003
 -22.6504
 -21.69
 -23.9327
 -26.5496
 -17.865
 -17.5393
 -17.865
 -26.5496
 -23.9327
 -21.69
 -22.6504
 -24.8003
 -26.7577
 -26.7422
 -24.6542
 -29.5091
 -22.3146
 -21.2776
 -22.7596
 -26.7577
 -36.2416
 -24.4101
 -18.9101
 -26.6226
 -18.3655
 -18.8561
 -18.3655
 -26.6226
 -18.9101
 -24.4101
 -36.2416
 -26.7577
 -22.7596
 -21.2776
 -22.3146
 -23.6107
 -42.1357
 -23.6889
 -21.2776
 -26.7422
 -27.7457
 -19.9239
 -29.5353
 -19.4136
 -24.4101
 -29.7366
 -24.4101
 -19.4136
 -29.5353
 -19.9239
 -27.7457
 -26.7422
 -21.2776
 -23.6889
 -42.1357
 -28.0551
 -22.807
 -42.1357
 -22.3146
 -24.6542
 -25.9263
 -21.6267
 -24.7452
 -26.7577
 -20.7203
 -20.0705
 -20.7203
 -26.7577
 -24.7452
 -21.6267
 -25.9263
 -24.6542
 -22.3146
 -42.1357
 -22.807
Phase 1 400 float
 87.6715
 120.485
 90.048
 -150.614
 5.70407
 -121.807
 116.038
 39.3971
 166.514
 -136.596
 -34.124
 -136.596
 166.514
 39.3971
 116.038
 -121.807
 5.70407
 -150.614
 90.048
 120.485
 120.485
 -113.445
 -82.6063
 158.408
 24.821
 -36.7523
 -98.4898
 -120.364
 176.984
 135.18
 -119.559
 135.18
 176.984
 -120.364
 -98.4898
 -36.7523
 24.821
 158.408
 -82.6063
 -113.445
 90.048
 -82.6063
 -27.9036
 29.9658
 -34.124
 -14.6016
 -13.9008
 160.003
 13.4815
 1.67541
 132.242
 1.67541
 13.4815
 160.003
 -13.9008
 -14.6016
 -34.124
 29.9658
 -27.9036
 -82.6063
 -150.614
 158.408
 29.9658
 163.457
 176.984
 -2.44923
 1.67541
 -105.986
 -75.3239
 -41.7582
 87.4405
 -41.7582
 -75.3239
 -105.986
 1.67541
 -2.44923
 176.984
 163.457
 29.9658
 158.408
 5.70407
 24.821
 -34.124
 176.984
 -78.939
 -107.815
 60.8753
 30.7323
 24.3703
 -146.096
 -0.0575044
 -146.096
 24.3703
 30.7323
 60.8753
 -107.815
 -78.939
 176.984
 -34.124
 24.821
 -121.807
 -36.7523
 -14.6016
 -2.44923
 -107.815
 -41.7582
 -132.586
 -35.8181
 151.149
 31.1674
 -153.697
 31.1674
 151.149
 -35.8181
 -132.586
 -41.7582
 -107.815
 -2.44923
 -14.6016
 -36.7523
 116.038
 -98.4898
 -13.9008
 1.67541
 60.8753
 -132.586
 16.4225
 -153.697
 -118.802
 -176.572
 70.5034
 -176.572
 -118.802
 -153.697
 16.4225
 -132.586
 60.8753
 1.67541
 -13.9008
 -98.4898
 39.3971
 -120.364
 160.003
 -105.986
 30.7323
 -35.8181
 -153.697
 -82.0547
 95.7023
 173.705
 150.926
 173.705
 95.7023
 -82.0547
 -153.697
 -35.8181
 30.7323
 -105.986
 160.003
 -120.364
 166.514
 176.984
 13.4815
 -75.3239
 24.3703
 151.149
 -118.802
 95.7023
 57.6105
 7.96364
 11.894
 7.96364
 57.6105
 95.7023
 -118.802
 151.149
 24.3703
 -75.3239
 13.4815
 176.984
 -136.596
 135.18
 1.67541
 -41.7582
 -146.096
 31.1674
 -176.572
 173.705
 7.96364
 99.5589
 -151.879
 99.5589
 7.96364
 173.705
 -176.572
 31.1674
 -146.096
 -41.7582
 1.67541
 135.18
 -34.124
 -119.559
 132.242
 87.4405
 -0.0575044
 -153.697
 70.5034
 150.926
 11.894
 -151.879
 175.156
 -151.879
 11.894
 150.926
 70.5034
 -153.697
 -0.0575044
 87.4405
 132.242
 -119.559
 -136.596
 135.18
 1.67541
 -41.7582
 -146.096
 31.1674
 -176.572
 173.705
 7.96364
 99.5589
 -151.879
 99.5589
 7.96364
 173.705
 -176.572
 31.1674
 -146.096
 -41.7582
 1.67541
 135.18
 166.514
 176.984
 13.4815
 -75.3239
 24.3703
 151.149
 -118.802
 95.7023
 57.6105
 7.96364
 11.894
 7.96364
 57.6105
 95.7023
 -118.802
 151.149
 24.3703
 -75.3239
 13.4815
 176.984
 39.3971
 -120.364
 160.003
 -105.986
 30.7323
 -35.8181
 -153.697
 -82.0547
 95.7023
 173.705
 150.926
 173.705
 95.7023
 -82.0547
 -153.697
 -35.8181
 30.7323
 -105.986
 160.003
 -120.364
 116.038
 -98.4898
 -13.9008
 1.67541
 60.8753
 -132.586
 16.4225
 -153.697
 -118.802
 -176.572
 70.5034
 -176.572
 -118.802
 -153.697
 16.4225
 -132.586
 60.8753
 1.67541
 -13.9008
 -98.4898
 -121.807
 -36.7523
 -14.6016
 -2.44923
 -107.815
 -41.7582
 -132.586
 -35.8181
 151.149
 31.1674
 -153.697
 31.1674
 151.149
 -35.8181
 -132.586
 -41.7582
 -107.815
 -2.44923
 -14.6016
 -36.7523
 5.70407
 24.821
 -34.124
 176.984
 -78.939
 -107.815
 60.8753
 30.7323
 24.3703
 -146.096
 -0.0575044
 -146.096
 24.3703
 30.7323
 60.8753
 -107.815
 -78.939
 176.984
 -34.124
 24.821
 -150.614
 158.408
 29.9658
 163.457
 176.984
 -2.44923
 1.67541
 -105.986
 -75.3239
 -41.7582
 87.4405
 -41.7582
 -75.3239
 -105.986
 1.67541
 -2.44923
 176.984
 163.457
 29.9658
 158.408
 90.048
 -82.6063
 -27.9036
 29.9658
 -34.124
 -14.6016
 -13.9008
 160.003
 13.4815
 1.67541
 132.242
 1.67541
 13.4815
 160.003
 -13.9008
 -14.6016
 -34.124
 29.9658
 -27.9036
 -82.6063
 70.2027
 -113.445
 -82.6063
 158.408
 24.821
 -36.7523
 -98.4898
 -120.364
 176.984
 135.18
 -119.559
 135.18
 176.984
 -120.364
 -98.4898
 -36.7523
 24.821
 158.408
 -82.6063
 -113.445
