# vtk DataFile Version 2.0
3D model of boudary volume hierarchy
ASCII
DATASET UNSTRUCTURED_GRID

POINTS 1368 float
 -31.7083 -44.3658 -0
 28.5555 -44.3658 -0
 -31.7083 33.7773 -0
 28.5555 33.7773 -0
 -31.7083 -44.3658 3.00001
 28.5555 -44.3658 3.00001
 -31.7083 33.7773 3.00001
 28.5555 33.7773 3.00001
 -20.4951 -44.3658 -0
 27.9773 -44.3658 -0
 -20.4951 -9.01437 -0
 27.9773 -9.01437 -0
 -20.4951 -44.3658 3.00001
 27.9773 -44.3658 3.00001
 -20.4951 -9.01437 3.00001
 27.9773 -9.01437 3.00001
 -31.7083 -44.3658 -0
 28.5555 -44.3658 -0
 -31.7083 33.7773 -0
 28.5555 33.7773 -0
 -31.7083 -44.3658 3.00001
 28.5555 -44.3658 3.00001
 -31.7083 33.7773 3.00001
 28.5555 33.7773 3.00001
 -20.4951 -44.3658 -0
 -1.27768 -44.3658 -0
 -20.4951 -9.0386 -0
 -1.27768 -9.0386 -0
 -20.4951 -44.3658 3.00001
 -1.27768 -44.3658 3.00001
 -20.4951 -9.0386 3.00001
 -1.27768 -9.0386 3.00001
 -3.18855 -29.5907 -0
 27.9773 -29.5907 -0
 -3.18855 -9.01437 -0
 27.9773 -9.01437 -0
 -3.18855 -29.5907 3.00001
 27.9773 -29.5907 3.00001
 -3.18855 -9.01437 3.00001
 27.9773 -9.01437 3.00001
 -20.4951 -44.3658 -0
 -15.3995 -44.3658 -0
 -20.4951 -10.8036 -0
 -15.3995 -10.8036 -0
 -20.4951 -44.3658 3.00001
 -15.3995 -44.3658 3.00001
 -20.4951 -10.8036 3.00001
 -15.3995 -10.8036 3.00001
 -16.5347 -26.7901 -0
 -1.27768 -26.7901 -0
 -16.5347 -9.0386 -0
 -1.27768 -9.0386 -0
 -16.5347 -26.7901 3.00001
 -1.27768 -26.7901 3.00001
 -16.5347 -9.0386 3.00001
 -1.27768 -9.0386 3.00001
 -20.4898 -44.3658 -0
 -15.3995 -44.3658 -0
 -20.4898 -24.4766 -0
 -15.3995 -24.4766 -0
 -20.4898 -44.3658 3.00001
 -15.3995 -44.3658 3.00001
 -20.4898 -24.4766 3.00001
 -15.3995 -24.4766 3.00001
 -20.4951 -26.4335 -0
 -16.484 -26.4335 -0
 -20.4951 -10.8036 -0
 -16.484 -10.8036 -0
 -20.4951 -26.4335 3.00001
 -16.484 -26.4335 3.00001
 -20.4951 -10.8036 3.00001
 -16.484 -10.8036 3.00001
 -20.4898 -44.3658 -0
 -16.5162 -44.3658 -0
 -20.4898 -24.4766 -0
 -16.5162 -24.4766 -0
 -20.4898 -44.3658 3.00001
 -16.5162 -44.3658 3.00001
 -20.4898 -24.4766 3.00001
 -16.5162 -24.4766 3.00001
 -16.5162 -40.1069 -0
 -15.3995 -40.1069 -0
 -16.5162 -26.4335 -0
 -15.3995 -26.4335 -0
 -16.5162 -40.1069 3.00001
 -15.3995 -40.1069 3.00001
 -16.5162 -26.4335 3.00001
 -15.3995 -26.4335 3.00001
 -19.2875 -44.3658 -0
 -16.5162 -44.3658 -0
 -19.2875 -28.7163 -0
 -16.5162 -28.7163 -0
 -19.2875 -44.3658 3.00001
 -16.5162 -44.3658 3.00001
 -19.2875 -28.7163 3.00001
 -16.5162 -28.7163 3.00001
 -20.4898 -28.7163 -0
 -19.2875 -28.7163 -0
 -20.4898 -24.4766 -0
 -19.2875 -24.4766 -0
 -20.4898 -28.7163 3.00001
 -19.2875 -28.7163 3.00001
 -20.4898 -24.4766 3.00001
 -19.2875 -24.4766 3.00001
 -19.2875 -44.3658 -0
 -19.2875 -44.3658 -0
 -19.2875 -28.7163 -0
 -19.2875 -28.7163 -0
 -19.2875 -44.3658 3.00001
 -19.2875 -44.3658 3.00001
 -19.2875 -28.7163 3.00001
 -19.2875 -28.7163 3.00001
 -19.2875 -44.3658 -0
 -16.5162 -44.3658 -0
 -19.2875 -40.1069 -0
 -16.5162 -40.1069 -0
 -19.2875 -44.3658 3.00001
 -16.5162 -44.3658 3.00001
 -19.2875 -40.1069 3.00001
 -16.5162 -40.1069 3.00001
 -16.5162 -40.1069 -0
 -15.3995 -40.1069 -0
 -16.5162 -34.2798 -0
 -15.3995 -34.2798 -0
 -16.5162 -40.1069 3.00001
 -15.3995 -40.1069 3.00001
 -16.5162 -34.2798 3.00001
 -15.3995 -34.2798 3.00001
 -16.4999 -34.2798 -0
 -15.3995 -34.2798 -0
 -16.4999 -26.4335 -0
 -15.3995 -26.4335 -0
 -16.4999 -34.2798 3.00001
 -15.3995 -34.2798 3.00001
 -16.4999 -26.4335 3.00001
 -15.3995 -26.4335 3.00001
 -16.4999 -34.2798 -0
 -15.3995 -34.2798 -0
 -16.4999 -27.6766 -0
 -15.3995 -27.6766 -0
 -16.4999 -34.2798 3.00001
 -15.3995 -34.2798 3.00001
 -16.4999 -27.6766 3.00001
 -15.3995 -27.6766 3.00001
 -16.4999 -27.6766 -0
 -15.4448 -27.6766 -0
 -16.4999 -26.4335 -0
 -15.4448 -26.4335 -0
 -16.4999 -27.6766 3.00001
 -15.4448 -27.6766 3.00001
 -16.4999 -26.4335 3.00001
 -15.4448 -26.4335 3.00001
 -20.4898 -26.4335 -0
 -16.484 -26.4335 -0
 -20.4898 -12.5767 -0
 -16.484 -12.5767 -0
 -20.4898 -26.4335 3.00001
 -16.484 -26.4335 3.00001
 -20.4898 -12.5767 3.00001
 -16.484 -12.5767 3.00001
 -20.4951 -16.308 -0
 -19.3058 -16.308 -0
 -20.4951 -10.8036 -0
 -19.3058 -10.8036 -0
 -20.4951 -16.308 3.00001
 -19.3058 -16.308 3.00001
 -20.4951 -10.8036 3.00001
 -19.3058 -10.8036 3.00001
 -20.4898 -24.4766 -0
 -19.3058 -24.4766 -0
 -20.4898 -16.308 -0
 -19.3058 -16.308 -0
 -20.4898 -24.4766 3.00001
 -19.3058 -24.4766 3.00001
 -20.4898 -16.308 3.00001
 -19.3058 -16.308 3.00001
 -19.3058 -26.4335 -0
 -16.484 -26.4335 -0
 -19.3058 -12.5767 -0
 -16.484 -12.5767 -0
 -19.3058 -26.4335 3.00001
 -16.484 -26.4335 3.00001
 -19.3058 -12.5767 3.00001
 -16.484 -12.5767 3.00001
 -20.4951 -16.308 -0
 -19.3058 -16.308 -0
 -20.4951 -13.7159 -0
 -19.3058 -13.7159 -0
 -20.4951 -16.308 3.00001
 -19.3058 -16.308 3.00001
 -20.4951 -13.7159 3.00001
 -19.3058 -13.7159 3.00001
 -20.4951 -13.7159 -0
 -19.3211 -13.7159 -0
 -20.4951 -10.8036 -0
 -19.3211 -10.8036 -0
 -20.4951 -13.7159 3.00001
 -19.3211 -13.7159 3.00001
 -20.4951 -10.8036 3.00001
 -19.3211 -10.8036 3.00001
 -10.4101 -26.7901 -0
 -1.27768 -26.7901 -0
 -10.4101 -12.5767 -0
 -1.27768 -12.5767 -0
 -10.4101 -26.7901 3.00001
 -1.27768 -26.7901 3.00001
 -10.4101 -12.5767 3.00001
 -1.27768 -12.5767 3.00001
 -16.5347 -13.7209 -0
 -3.18855 -13.7209 -0
 -16.5347 -9.0386 -0
 -3.18855 -9.0386 -0
 -16.5347 -13.7209 3.00001
 -3.18855 -13.7209 3.00001
 -16.5347 -9.0386 3.00001
 -3.18855 -9.0386 3.00001
 -10.4101 -26.7901 0
 -1.27768 -26.7901 0
 -10.4101 -12.5767 0
 -1.27768 -12.5767 0
 -10.4101 -26.7901 3.00001
 -1.27768 -26.7901 3.00001
 -10.4101 -12.5767 3.00001
 -1.27768 -12.5767 3.00001
 -5.69007 -22.286 -0
 -2.15747 -22.286 -0
 -5.69007 -13.7209 -0
 -2.15747 -13.7209 -0
 -5.69007 -22.286 1.49999
 -2.15747 -22.286 1.49999
 -5.69007 -13.7209 1.49999
 -2.15747 -13.7209 1.49999
 -5.3216 -22.286 -0
 -2.15747 -22.286 -0
 -5.3216 -19.4992 -0
 -2.15747 -19.4992 -0
 -5.3216 -22.286 1.49999
 -2.15747 -22.286 1.49999
 -5.3216 -19.4992 1.49999
 -2.15747 -19.4992 1.49999
 -5.69007 -19.4992 -0
 -3.73355 -19.4992 -0
 -5.69007 -13.7209 -0
 -3.73355 -13.7209 -0
 -5.69007 -19.4992 1.49999
 -3.73355 -19.4992 1.49999
 -5.69007 -13.7209 1.49999
 -3.73355 -13.7209 1.49999
 -5.3216 -21.0696 -0
 -4.27226 -21.0696 -0
 -5.3216 -19.4992 -0
 -4.27226 -19.4992 -0
 -5.3216 -21.0696 1.49999
 -4.27226 -21.0696 1.49999
 -5.3216 -19.4992 1.49999
 -4.27226 -19.4992 1.49999
 -4.27226 -22.286 -0
 -2.15747 -22.286 -0
 -4.27226 -21.0696 -0
 -2.15747 -21.0696 -0
 -4.27226 -22.286 1.49999
 -2.15747 -22.286 1.49999
 -4.27226 -21.0696 1.49999
 -2.15747 -21.0696 1.49999
 -5.69007 -19.4992 -0
 -5.3216 -19.4992 -0
 -5.69007 -15.7943 -0
 -5.3216 -15.7943 -0
 -5.69007 -19.4992 1.49999
 -5.3216 -19.4992 1.49999
 -5.69007 -15.7943 1.49999
 -5.3216 -15.7943 1.49999
 -5.59706 -16.7023 -0
 -3.73355 -16.7023 -0
 -5.59706 -13.7209 -0
 -3.73355 -13.7209 -0
 -5.59706 -16.7023 1.49999
 -3.73355 -16.7023 1.49999
 -5.59706 -13.7209 1.49999
 -3.73355 -13.7209 1.49999
 -5.69007 -19.4992 -0
 -5.3216 -19.4992 -0
 -5.69007 -17.6467 -0
 -5.3216 -17.6467 -0
 -5.69007 -19.4992 1.49999
 -5.3216 -19.4992 1.49999
 -5.69007 -17.6467 1.49999
 -5.3216 -17.6467 1.49999
 -5.69007 -17.6467 -0
 -5.3216 -17.6467 -0
 -5.69007 -15.7943 -0
 -5.3216 -15.7943 -0
 -5.69007 -17.6467 1.49999
 -5.3216 -17.6467 1.49999
 -5.69007 -15.7943 1.49999
 -5.3216 -15.7943 1.49999
 -5.59706 -16.7023 -0
 -4.87427 -16.7023 -0
 -5.59706 -14.9574 -0
 -4.87427 -14.9574 -0
 -5.59706 -16.7023 1.49999
 -4.87427 -16.7023 1.49999
 -5.59706 -14.9574 1.49999
 -4.87427 -14.9574 1.49999
 -4.87427 -14.9574 -0
 -3.73355 -14.9574 -0
 -4.87427 -13.7209 -0
 -3.73355 -13.7209 -0
 -4.87427 -14.9574 1.49999
 -3.73355 -14.9574 1.49999
 -4.87427 -13.7209 1.49999
 -3.73355 -13.7209 1.49999
 -16.5347 -12.5767 -0
 -3.20004 -12.5767 -0
 -16.5347 -9.0405 -0
 -3.20004 -9.0405 -0
 -16.5347 -12.5767 3.00001
 -3.20004 -12.5767 3.00001
 -16.5347 -9.0405 3.00001
 -3.20004 -9.0405 3.00001
 -7.13248 -13.7209 0
 -3.18855 -13.7209 0
 -7.13248 -9.0386 0
 -3.18855 -9.0386 0
 -7.13248 -13.7209 3.00001
 -3.18855 -13.7209 3.00001
 -7.13248 -9.0386 3.00001
 -3.18855 -9.0386 3.00001
 -16.484 -12.5767 0
 -3.20004 -12.5767 0
 -16.484 -12.5767 0
 -3.20004 -12.5767 0
 -16.484 -12.5767 3
 -3.20004 -12.5767 3
 -16.484 -12.5767 3
 -3.20004 -12.5767 3
 -16.5347 -9.63204 -0
 -7.13248 -9.63204 -0
 -16.5347 -9.0405 -0
 -7.13248 -9.0405 -0
 -16.5347 -9.63204 3.00001
 -7.13248 -9.63204 3.00001
 -16.5347 -9.0405 3.00001
 -7.13248 -9.0405 3.00001
 -16.5347 -9.0405 -0
 -10.5334 -9.0405 -0
 -16.5347 -9.0405 -0
 -10.5334 -9.0405 -0
 -16.5347 -9.0405 3.00001
 -10.5334 -9.0405 3.00001
 -16.5347 -9.0405 3.00001
 -10.5334 -9.0405 3.00001
 -10.5334 -9.63204 -0
 -7.13248 -9.63204 -0
 -10.5334 -9.0405 -0
 -7.13248 -9.0405 -0
 -10.5334 -9.63204 3.00001
 -7.13248 -9.63204 3.00001
 -10.5334 -9.0405 3.00001
 -7.13248 -9.0405 3.00001
 -3.73355 -13.7209 -0
 -3.20004 -13.7209 -0
 -3.73355 -12.5767 -0
 -3.20004 -12.5767 -0
 -3.73355 -13.7209 1.49999
 -3.20004 -13.7209 1.49999
 -3.73355 -12.5767 1.49999
 -3.20004 -12.5767 1.49999
 -7.13248 -9.63204 -0
 -3.18855 -9.63204 -0
 -7.13248 -9.0386 -0
 -3.18855 -9.0386 -0
 -7.13248 -9.63204 3.00001
 -3.18855 -9.63204 3.00001
 -7.13248 -9.0386 3.00001
 -3.18855 -9.0386 3.00001
 -3.73355 -13.7209 -0
 -3.20636 -13.7209 -0
 -3.73355 -13.4107 -0
 -3.20636 -13.4107 -0
 -3.73355 -13.7209 1.49999
 -3.20636 -13.7209 1.49999
 -3.73355 -13.4107 1.49999
 -3.20636 -13.4107 1.49999
 -3.30344 -13.4198 -0
 -3.20004 -13.4198 -0
 -3.30344 -12.5767 -0
 -3.20004 -12.5767 -0
 -3.30344 -13.4198 1.49999
 -3.20004 -13.4198 1.49999
 -3.30344 -12.5767 1.49999
 -3.20004 -12.5767 1.49999
 -7.13248 -9.63204 -0
 -5.61595 -9.63204 -0
 -7.13248 -9.04195 -0
 -5.61595 -9.04195 -0
 -7.13248 -9.63204 3.00001
 -5.61595 -9.63204 3.00001
 -7.13248 -9.04195 3.00001
 -5.61595 -9.04195 3.00001
 -5.61595 -9.61527 0
 -3.18855 -9.61527 0
 -5.61595 -9.0386 0
 -3.18855 -9.0386 0
 -5.61595 -9.61527 3.00001
 -3.18855 -9.61527 3.00001
 -5.61595 -9.0386 3.00001
 -3.18855 -9.0386 3.00001
 -2.15747 -29.5907 -0
 17.2359 -29.5907 -0
[...]
CELL_DATA 171
FIELD FieldData 4
BoxID 1 171 int
 0
 1
 2
 3
 4
 5
 6
 7
 8
 9
 10
 11
 12
 13
 14
 15
 16
 17
 18
 19
 20
 21
 22
 23
 24
 25
 26
 27
 28
 29
 30
 31
 32
 33
 34
 35
 36
 37
 38
 39
 40
 41
 42
 43
 44
 45
 46
 47
 48
 49
 50
 51
 52
 53
 54
 55
 56
 57
 58
 59
 60
 61
 62
 63
 64
 65
 66
 67
 68
 69
 70
 71
 72
 73
 74
 75
 76
 77
 78
 79
 80
 81
 82
 83
 84
 85
 86
 87
 88
 89
 90
 91
 92
 93
 94
 95
 96
 97
 98
 99
 100
 101
 102
 103
 104
 105
 106
 107
 108
 109
 110
 111
 112
 113
 114
 115
 116
 117
 118
 119
 120
 121
 122
 123
 124
 125
 126
 127
 128
 129
 130
 131
 132
 133
 134
 135
 136
 137
 138
 139
 140
 141
 142
 143
 144
 145
 146
 147
 148
 149
 150
 151
 152
 153
 154
 155
 156
 157
 158
 159
 160
 161
 162
 163
 164
 165
 166
 167
 168
 169
 170
Child0 1 171 int
 1
 3
 109
 5
 51
 7
 25
 9
 19
 11
 15
 13
 -1
 -1
 -1
 -1
 17
 -1
 -1
 21
 23
 -1
 -1
 -1
 -1
 27
 39
 -1
 29
 31
 33
 -1
 -1
 35
 37
 -1
 -1
 -1
 -1
 41
 45
 -1
 43
 -1
 -1
 47
 49
 -1
 -1
 -1
 -1
 53
 95
 55
 63
 57
 61
 -1
 59
 -1
 -1
 -1
 -1
 65
 83
 67
 79
 69
 73
 -1
 71
 -1
 -1
 75
 -1
 77
 -1
 -1
 -1
 -1
 81
 -1
 -1
 85
 -1
 87
 91
 -1
 89
 -1
 -1
 93
 -1
 -1
 -1
 97
 103
 99
 101
 -1
 -1
 -1
 -1
 105
 -1
 107
 -1
 -1
 -1
 111
 157
 113
 137
 115
 121
 117
 119
 -1
 -1
 -1
 -1
 123
 127
 -1
 125
 -1
 -1
 129
 131
 -1
 -1
 -1
 133
 -1
 135
 -1
 -1
 139
 143
 -1
 141
 -1
 -1
 145
 153
 147
 149
 -1
 -1
 151
 -1
 -1
 -1
 -1
 155
 -1
 -1
 -1
 159
 161
 165
 -1
 163
 -1
 -1
 167
 169
 -1
 -1
 -1
 -1
Child1 1 171 int
 2
 4
 110
 6
 52
 8
 26
 10
 20
 12
 16
 14
 -1
 -1
 -1
 -1
 18
 -1
 -1
 22
 24
 -1
 -1
 -1
 -1
 28
 40
 -1
 30
 32
 34
 -1
 -1
 36
 38
 -1
 -1
 -1
 -1
 42
 46
 -1
 44
 -1
 -1
 48
 50
 -1
 -1
 -1
 -1
 54
 96
 56
 64
 58
 62
 -1
 60
 -1
 -1
 -1
 -1
 66
 84
 68
 80
 70
 74
 -1
 72
 -1
 -1
 76
 -1
 78
 -1
 -1
 -1
 -1
 82
 -1
 -1
 86
 -1
 88
 92
 -1
 90
 -1
 -1
 94
 -1
 -1
 -1
 98
 104
 100
 102
 -1
 -1
 -1
 -1
 106
 -1
 108
 -1
 -1
 -1
 112
 158
 114
 138
 116
 122
 118
 120
 -1
 -1
 -1
 -1
 124
 128
 -1
 126
 -1
 -1
 130
 132
 -1
 -1
 -1
 134
 -1
 136
 -1
 -1
 140
 144
 -1
 142
 -1
 -1
 146
 154
 148
 150
 -1
 -1
 152
 -1
 -1
 -1
 -1
 156
 -1
 -1
 -1
 160
 162
 166
 -1
 164
 -1
 -1
 168
 170
 -1
 -1
 -1
 -1
NumFaces 1 171 int
 0
 0
 0
 0
 0
 0
 0
 0
 0
 0
 0
 0
 4
 2
 4
 5
 0
 3
 6
 0
 0
 3
 3
 5
 5
 0
 0
 4
 0
 0
 0
 4
 4
 0
 0
 4
 3
 3
 4
 0
 0
 4
 0
 2
 4
 0
 0
 3
 5
 5
 5
 0
 0
 0
 0
 0
 0
 3
 0
 2
 4
 5
 6
 0
 0
 0
 0
 0
 0
 3
 0
 4
 4
 0
 4
 0
 5
 1
 3
 3
 0
 4
 4
 0
 3
 0
 0
 4
 0
 3
 4
 0
 4
 2
 4
 0
 0
 0
 0
 5
 4
 3
 3
 0
 7
 0
 3
 4
 2
 0
 0
 0
 0
 0
 0
 0
 0
 3
 5
 2
 6
 0
 0
 5
 0
 3
 4
 0
 0
 2
 6
 5
 0
 3
 0
 2
 3
 0
 0
 7
 0
 1
 4
 0
 0
 0
 0
 3
 4
 0
 4
 4
 3
 4
 0
 3
 5
 5
 0
 0
 0
 4
 0
 1
 4
 0
 0
 3
 2
 3
 4
