# vtk DataFile Version 2.0
3D model of boudary volume hierarchy
ASCII
DATASET UNSTRUCTURED_GRID

POINTS 72 float
 0 0 -0
 12 0 -0
 0 9 -0
 12 9 -0
 0 0 3
 12 0 3
 0 9 3
 12 9 3
 0 0 0
 12 0 0
 0 9 0
 12 9 0
 0 0 3
 12 0 3
 0 9 3
 12 9 3
 0 6 0
 12 6 0
 0 9 0
 12 9 0
 0 6 3
 12 6 3
 0 9 3
 12 9 3
 0 0 0
 12 0 0
 0 3 0
 12 3 0
 0 0 3
 12 0 3
 0 3 3
 12 3 3
 0 0 0
 12 0 0
 0 9 0
 12 9 0
 0 0 3
 12 0 3
 0 9 3
 12 9 3
 0 0 0
 12 0 0
 0 3 0
 12 3 0
 0 0 3
 12 0 3
 0 3 3
 12 3 3
 1 3 0
 11 3 0
 1 3 0
 11 3 0
 1 3 3
 11 3 3
 1 3 3
 11 3 3
 1 6 0
 11 6 0
 1 6 0
 11 6 0
 1 6 3
 11 6 3
 1 6 3
 11 6 3
 0 6 0
 12 6 0
 0 9 0
 12 9 0
 0 6 3
 12 6 3
 0 9 3
 12 9 3
CELLS 9 81
 8 0 1 2 3 4 5 6 7
 8 8 9 10 11 12 13 14 15
 8 16 17 18 19 20 21 22 23
 8 24 25 26 27 28 29 30 31
 8 32 33 34 35 36 37 38 39
 8 40 41 42 43 44 45 46 47
 8 48 49 50 51 52 53 54 55
 8 56 57 58 59 60 61 62 63
 8 64 65 66 67 68 69 70 71
CELL_TYPES 9
 11
 11
 11
 11
 11
 11
 11
 11
 11
CELL_DATA 9
FIELD FieldData 4
BoxID 1 9 int
 0
 1
 2
 3
 4
 5
 6
 7
 8
Child0 1 9 int
 1
 3
 7
 5
 -1
 -1
 -1
 -1
 -1
Child1 1 9 int
 2
 4
 8
 6
 -1
 -1
 -1
 -1
 -1
NumFaces 1 9 int
 0
 0
 0
 0
 9
 6
 3
 3
 7
