# vtk DataFile Version 2.0
3D model of boudary volume hierarchy
ASCII
DATASET UNSTRUCTURED_GRID

POINTS 8 float
 -10 -10 0
 10 -10 0
 -10 10 0
 10 10 0
 -10 -10 0
 10 -10 0
 -10 10 0
 10 10 0
CELLS 1 9
 8 0 1 2 3 4 5 6 7
CELL_TYPES 1
 11
CELL_DATA 1
FIELD FieldData 4
BoxID 1 1 int
 0
Child0 1 1 int
 -1
Child1 1 1 int
 -1
NumFaces 1 1 int
 2
