# vtk DataFile Version 2.0
3D model of boudary volume hierarchy
ASCII
DATASET UNSTRUCTURED_GRID

POINTS 56 float
 -10 -20 -20
 10 -20 -20
 -10 20 -20
 10 20 -20
 -10 -20 20
 10 -20 20
 -10 20 20
 10 20 20
 -10 -20 -20
 10 -20 -20
 -10 7.07107 -20
 10 7.07107 -20
 -10 -20 7.07107
 10 -20 7.07107
 -10 7.07107 7.07107
 10 7.07107 7.07107
 -10 -7.07107 -7.07107
 10 -7.07107 -7.07107
 -10 20 -7.07107
 10 20 -7.07107
 -10 -7.07107 20
 10 -7.07107 20
 -10 20 20
 10 20 20
 -10 -20 -20
 10 -20 -20
 -10 -0 -20
 10 -0 -20
 -10 -20 0
 10 -20 0
 -10 -0 0
 10 -0 0
 -10 -20 -7.07107
 10 -20 -7.07107
 -10 7.07107 -7.07107
 10 7.07107 -7.07107
 -10 -20 7.07107
 10 -20 7.07107
 -10 7.07107 7.07107
 10 7.07107 7.07107
 -10 -7.07107 -7.07107
 10 -7.07107 -7.07107
 -10 7.07107 -7.07107
 10 7.07107 -7.07107
 -10 -7.07107 7.07107
 10 -7.07107 7.07107
 -10 7.07107 7.07107
 10 7.07107 7.07107
 -10 -0 0
 10 -0 0
 -10 20 0
 10 20 0
 -10 -0 20
 10 -0 20
 -10 20 20
 10 20 20
CELLS 7 63
 8 0 1 2 3 4 5 6 7
 8 8 9 10 11 12 13 14 15
 8 16 17 18 19 20 21 22 23
 8 24 25 26 27 28 29 30 31
 8 32 33 34 35 36 37 38 39
 8 40 41 42 43 44 45 46 47
 8 48 49 50 51 52 53 54 55
CELL_TYPES 7
 11
 11
 11
 11
 11
 11
 11
CELL_DATA 7
FIELD FieldData 4
BoxID 1 7 int
 0
 1
 2
 3
 4
 5
 6
Child0 1 7 int
 1
 3
 5
 -1
 -1
 -1
 -1
Child1 1 7 int
 2
 4
 6
 -1
 -1
 -1
 -1
NumFaces 1 7 int
 0
 0
 0
 3
 3
 2
 4
