# vtk DataFile Version 2.0
3D model of edge geometry
ASCII
DATASET POLYDATA

POINTS 18 float
 -10 -20 0
 -10 -7.07107 -7.07107
 -10 -7.07107 7.07107
 -10 0 -20
 -10 -0 0
 -10 -0 20
 -10 7.07107 -7.07107
 -10 7.07107 7.07107
 -10 20 0
 10 -20 0
 10 -7.07107 -7.07107
 10 -7.07107 7.07107
 10 0 -20
 10 -0 0
 10 -0 20
 10 7.07107 -7.07107
 10 7.07107 7.07107
 10 20 0LINES 27 81
 2 0 4
 2 0 9
 2 0 13
 2 1 7
 2 1 10
 2 1 16
 2 2 6
 2 2 11
 2 2 15
 2 3 4
 2 3 12
 2 3 13
 2 4 5
 2 4 8
 2 4 13
 2 4 14
 2 4 17
 2 5 14
 2 6 15
 2 7 16
 2 8 17
 2 9 13
 2 10 16
 2 11 15
 2 12 13
 2 13 14
 2 13 17
CELL_DATA 27
FIELD FieldData 2
EdgeID 1 27 int
 0
 1
 2
 3
 4
 5
 6
 7
 8
 9
 10
 11
 12
 13
 14
 15
 16
 17
 18
 19
 20
 21
 22
 23
 24
 25
 26
Connection 1 27 int
 1
 1
 2
 1
 1
 2
 1
 1
 2
 1
 1
 2
 1
 1
 4
 2
 2
 1
 1
 1
 1
 1
 1
 1
 1
 1
 1
