# vtk DataFile Version 2.0
3D model of face geometry
ASCII
DATASET POLYDATA

POINTS 4 float
 -5 -1 0
 -5 1000 0
 5 -1 0
 5 1000 0
POLYGONS 2 8
 3 0 2 3
 3 0 3 1
CELL_DATA 2
FIELD FieldData 3
FaceID 1 2 int
 0
 1
CoplanarID 1 2 int
 0
 0
MaterialID 1 2 int
 0
 0
