# vtk DataFile Version 2.0
TX Icosahedron Visualization
ASCII
DATASET POLYDATA

POINTS 163 float
 -10 0 1
 -10.5257 0 1.85065
 -9.47427 0 1.85065
 -10.5257 0 0.149349
 -9.47427 0 0.149349
 -10 0.850651 1.52573
 -10 0.850651 0.474269
 -10 -0.850651 1.52573
 -10 -0.850651 0.474269
 -9.14935 0.525731 1
 -10.8507 0.525731 1
 -9.14935 -0.525731 1
 -10.8507 -0.525731 1
 -10.309 0.5 1.80902
 -9.69098 0.5 1.80902
 -10 0 2
 -10.809 0.309017 1.5
 -10.5 0.809017 1.30902
 -10.5 0.809017 0.690983
 -10 1 1
 -9.5 0.809017 0.690983
 -9.5 0.809017 1.30902
 -9.19098 0.309017 1.5
 -9 0 1
 -9.19098 -0.309017 1.5
 -9.19098 0.309017 0.5
 -9.19098 -0.309017 0.5
 -9.69098 0.5 0.190983
 -10.309 0.5 0.190983
 -10 0 0
 -10.309 -0.5 0.190983
 -9.69098 -0.5 0.190983
 -9.5 -0.809017 0.690983
 -10 -1 1
 -9.5 -0.809017 1.30902
 -10.5 -0.809017 0.690983
 -10.5 -0.809017 1.30902
 -10.809 -0.309017 1.5
 -10.309 -0.5 1.80902
 -9.69098 -0.5 1.80902
 -11 0 1
 -10.809 -0.309017 0.5
 -10.809 0.309017 0.5
 -10.4339 0.259892 1.86267
 -10.1625 0.262866 1.95106
 -10.2733 0 1.96194
 -9.83938 0.702046 1.69378
 -10 0.525731 1.85065
 -10.1606 0.702046 1.69378
 -9.72673 0 1.96194
 -9.83754 0.262866 1.95106
 -9.56611 0.259892 1.86267
 -10.6938 0.160622 1.70205
 -10.5878 0.425325 1.68819
 -10.702 0.69378 1.16062
 -10.6882 0.587785 1.42533
 -10.8627 0.433889 1.25989
 -10.4253 0.688191 1.58779
 -10.2599 0.862668 1.43389
 -10.702 0.69378 0.839378
 -10.5257 0.850651 1
 -10 0.961938 0.726733
 -10.2629 0.951057 0.83754
 -10.2599 0.862668 0.566111
 -10.2629 0.951057 1.16246
 -10 0.961938 1.27327
 -9.73713 0.951057 1.16246
 -9.74011 0.862668 1.43389
 -9.74011 0.862668 0.566111
 -9.73713 0.951057 0.83754
 -9.29795 0.69378 1.16062
 -9.47427 0.850651 1
 -9.29795 0.69378 0.839378
 -9.57467 0.688191 1.58779
 -9.13733 0.433889 1.25989
 -9.31181 0.587785 1.42533
 -9.41221 0.425325 1.68819
 -9.30622 0.160622 1.70205
 -9.03806 0.273267 1
 -9.04894 0.16246 1.26287
 -9.13733 -0.433889 1.25989
 -9.04894 -0.16246 1.26287
 -9.03806 -0.273267 1
 -9.14935 0 1.52573
 -9.30622 -0.160622 1.70205
 -9.13733 0.433889 0.740108
 -9.04894 0.16246 0.737134
 -9.30622 -0.160622 0.297954
 -9.14935 0 0.474269
 -9.30622 0.160622 0.297954
 -9.04894 -0.16246 0.737134
 -9.13733 -0.433889 0.740108
 -9.83938 0.702046 0.30622
 -9.57467 0.688191 0.412215
 -9.41221 0.425325 0.311809
 -9.56611 0.259892 0.137332
 -9.31181 0.587785 0.574675
 -10.1606 0.702046 0.30622
 -10 0.525731 0.149349
 -10.2733 0 0.0380616
 -10.1625 0.262866 0.0489435
 -10.4339 0.259892 0.137332
 -9.83754 0.262866 0.0489435
 -9.72673 0 0.0380616
 -10.4339 -0.259892 0.137332
 -10.1625 -0.262866 0.0489435
 -9.83938 -0.702046 0.30622
 -10 -0.525731 0.149349
 -10.1606 -0.702046 0.30622
 -9.83754 -0.262866 0.0489435
 -9.56611 -0.259892 0.137332
 -9.74011 -0.862668 0.566111
 -9.57467 -0.688191 0.412215
 -9.31181 -0.587785 0.574675
 -9.29795 -0.69378 0.839378
 -9.41221 -0.425325 0.311809
 -10 -0.961938 0.726733
 -9.73713 -0.951057 0.83754
 -9.74011 -0.862668 1.43389
 -9.73713 -0.951057 1.16246
 -10 -0.961938 1.27327
 -9.47427 -0.850651 1
 -9.29795 -0.69378 1.16062
 -10.2599 -0.862668 0.566111
 -10.2629 -0.951057 0.83754
 -10.702 -0.69378 1.16062
 -10.5257 -0.850651 1
 -10.702 -0.69378 0.839378
 -10.2629 -0.951057 1.16246
 -10.2599 -0.862668 1.43389
 -10.8627 -0.433889 1.25989
 -10.6882 -0.587785 1.42533
 -10.4339 -0.259892 1.86267
 -10.5878 -0.425325 1.68819
 -10.6938 -0.160622 1.70205
 -10.4253 -0.688191 1.58779
 -10.1606 -0.702046 1.69378
 -10.1625 -0.262866 1.95106
 -9.56611 -0.259892 1.86267
 -9.83754 -0.262866 1.95106
 -10 -0.525731 1.85065
 -9.83938 -0.702046 1.69378
 -9.57467 -0.688191 1.58779
 -9.41221 -0.425325 1.68819
 -9.31181 -0.587785 1.42533
 -10.9511 0.16246 1.26287
 -10.9619 0.273267 1
 -10.8507 0 1.52573
 -10.9619 -0.273267 1
 -10.9511 -0.16246 1.26287
 -10.9511 0.16246 0.737134
 -10.8627 0.433889 0.740108
 -10.8627 -0.433889 0.740108
 -10.9511 -0.16246 0.737134
 -10.6938 0.160622 0.297954
 -10.8507 0 0.474269
 -10.6938 -0.160622 0.297954
 -10.6882 0.587785 0.574675
 -10.5878 0.425325 0.311809
 -10.4253 0.688191 0.412215
 -10.4253 -0.688191 0.412215
 -10.5878 -0.425325 0.311809
 -10.6882 -0.587785 0.574675
LINES 162 486
 2 0 1
 2 0 2
 2 0 3
 2 0 4
 2 0 5
 2 0 6
 2 0 7
 2 0 8
 2 0 9
 2 0 10
 2 0 11
 2 0 12
 2 0 13
 2 0 14
 2 0 15
 2 0 16
 2 0 17
 2 0 18
 2 0 19
 2 0 20
 2 0 21
 2 0 22
 2 0 23
 2 0 24
 2 0 25
 2 0 26
 2 0 27
 2 0 28
 2 0 29
 2 0 30
 2 0 31
 2 0 32
 2 0 33
 2 0 34
 2 0 35
 2 0 36
 2 0 37
 2 0 38
 2 0 39
 2 0 40
 2 0 41
 2 0 42
 2 0 43
 2 0 44
 2 0 45
 2 0 46
 2 0 47
 2 0 48
 2 0 49
 2 0 50
 2 0 51
 2 0 52
 2 0 53
 2 0 54
 2 0 55
 2 0 56
 2 0 57
 2 0 58
 2 0 59
 2 0 60
 2 0 61
 2 0 62
 2 0 63
 2 0 64
 2 0 65
 2 0 66
 2 0 67
 2 0 68
 2 0 69
 2 0 70
 2 0 71
 2 0 72
 2 0 73
 2 0 74
 2 0 75
 2 0 76
 2 0 77
 2 0 78
 2 0 79
 2 0 80
 2 0 81
 2 0 82
 2 0 83
 2 0 84
 2 0 85
 2 0 86
 2 0 87
 2 0 88
 2 0 89
 2 0 90
 2 0 91
 2 0 92
 2 0 93
 2 0 94
 2 0 95
 2 0 96
 2 0 97
 2 0 98
 2 0 99
 2 0 100
 2 0 101
 2 0 102
 2 0 103
 2 0 104
 2 0 105
 2 0 106
 2 0 107
 2 0 108
 2 0 109
 2 0 110
 2 0 111
 2 0 112
 2 0 113
 2 0 114
 2 0 115
 2 0 116
 2 0 117
 2 0 118
 2 0 119
 2 0 120
 2 0 121
 2 0 122
 2 0 123
 2 0 124
 2 0 125
 2 0 126
 2 0 127
 2 0 128
 2 0 129
 2 0 130
 2 0 131
 2 0 132
 2 0 133
 2 0 134
 2 0 135
 2 0 136
 2 0 137
 2 0 138
 2 0 139
 2 0 140
 2 0 141
 2 0 142
 2 0 143
 2 0 144
 2 0 145
 2 0 146
 2 0 147
 2 0 148
 2 0 149
 2 0 150
 2 0 151
 2 0 152
 2 0 153
 2 0 154
 2 0 155
 2 0 156
 2 0 157
 2 0 158
 2 0 159
 2 0 160
 2 0 161
 2 0 162
CELL_DATA 162
FIELD FieldData 1
LaunchID 1 162 int
 0
 1
 2
 3
 4
 5
 6
 7
 8
 9
 10
 11
 12
 13
 14
 15
 16
 17
 18
 19
 20
 21
 22
 23
 24
 25
 26
 27
 28
 29
 30
 31
 32
 33
 34
 35
 36
 37
 38
 39
 40
 41
 42
 43
 44
 45
 46
 47
 48
 49
 50
 51
 52
 53
 54
 55
 56
 57
 58
 59
 60
 61
 62
 63
 64
 65
 66
 67
 68
 69
 70
 71
 72
 73
 74
 75
 76
 77
 78
 79
 80
 81
 82
 83
 84
 85
 86
 87
 88
 89
 90
 91
 92
 93
 94
 95
 96
 97
 98
 99
 100
 101
 102
 103
 104
 105
 106
 107
 108
 109
 110
 111
 112
 113
 114
 115
 116
 117
 118
 119
 120
 121
 122
 123
 124
 125
 126
 127
 128
 129
 130
 131
 132
 133
 134
 135
 136
 137
 138
 139
 140
 141
 142
 143
 144
 145
 146
 147
 148
 149
 150
 151
 152
 153
 154
 155
 156
 157
 158
 159
 160
 161
