# vtk DataFile Version 2.0
TX Icosahedron Visualization
ASCII
DATASET POLYDATA

POINTS 163 float
 -10 0 1
 -11.0515 0 2.7013
 -8.94854 0 2.7013
 -11.0515 0 -0.701302
 -8.94854 0 -0.701302
 -10 1.7013 2.05146
 -10 1.7013 -0.0514622
 -10 -1.7013 2.05146
 -10 -1.7013 -0.0514622
 -8.2987 1.05146 1
 -11.7013 1.05146 1
 -8.2987 -1.05146 1
 -11.7013 -1.05146 1
 -10.618 1 2.61803
 -9.38197 1 2.61803
 -10 0 3
 -11.618 0.618034 2
 -11 1.61803 1.61803
 -11 1.61803 0.381966
 -10 2 1
 -9 1.61803 0.381966
 -9 1.61803 1.61803
 -8.38197 0.618034 2
 -8 0 1
 -8.38197 -0.618034 2
 -8.38197 0.618034 -2.22045e-16
 -8.38197 -0.618034 -2.22045e-16
 -9.38197 1 -0.618034
 -10.618 1 -0.618034
 -10 0 -1
 -10.618 -1 -0.618034
 -9.38197 -1 -0.618034
 -9 -1.61803 0.381966
 -10 -2 1
 -9 -1.61803 1.61803
 -11 -1.61803 0.381966
 -11 -1.61803 1.61803
 -11.618 -0.618034 2
 -10.618 -1 2.61803
 -9.38197 -1 2.61803
 -12 0 1
 -11.618 -0.618034 -2.22045e-16
 -11.618 0.618034 -2.22045e-16
 -10.8678 0.519784 2.72534
 -10.3249 0.525731 2.90211
 -10.5465 0 2.92388
 -9.67876 1.40409 2.38756
 -10 1.05146 2.7013
 -10.3212 1.40409 2.38756
 -9.45347 0 2.92388
 -9.67508 0.525731 2.90211
 -9.13222 0.519784 2.72534
 -11.3876 0.321244 2.40409
 -11.1756 0.850651 2.37638
 -11.4041 1.38756 1.32124
 -11.3764 1.17557 1.85065
 -11.7253 0.867777 1.51978
 -10.8507 1.37638 2.17557
 -10.5198 1.72534 1.86778
 -11.4041 1.38756 0.678756
 -11.0515 1.7013 1
 -10 1.92388 0.453467
 -10.5257 1.90211 0.67508
 -10.5198 1.72534 0.132223
 -10.5257 1.90211 1.32492
 -10 1.92388 1.54653
 -9.47427 1.90211 1.32492
 -9.48022 1.72534 1.86778
 -9.48022 1.72534 0.132223
 -9.47427 1.90211 0.67508
 -8.59591 1.38756 1.32124
 -8.94854 1.7013 1
 -8.59591 1.38756 0.678756
 -9.14935 1.37638 2.17557
 -8.27466 0.867777 1.51978
 -8.62362 1.17557 1.85065
 -8.82443 0.850651 2.37638
 -8.61244 0.321244 2.40409
 -8.07612 0.546533 1
 -8.09789 0.32492 1.52573
 -8.27466 -0.867777 1.51978
 -8.09789 -0.32492 1.52573
 -8.07612 -0.546533 1
 -8.2987 0 2.05146
 -8.61244 -0.321244 2.40409
 -8.27466 0.867777 0.480216
 -8.09789 0.32492 0.474269
 -8.61244 -0.321244 -0.404093
 -8.2987 0 -0.0514622
 -8.61244 0.321244 -0.404093
 -8.09789 -0.32492 0.474269
 -8.27466 -0.867777 0.480216
 -9.67876 1.40409 -0.387561
 -9.14935 1.37638 -0.175571
 -8.82443 0.850651 -0.376382
 -9.13222 0.519784 -0.725337
 -8.62362 1.17557 0.149349
 -10.3212 1.40409 -0.387561
 -10 1.05146 -0.701302
 -10.5465 0 -0.923877
 -10.3249 0.525731 -0.902113
 -10.8678 0.519784 -0.725337
 -9.67508 0.525731 -0.902113
 -9.45347 0 -0.923877
 -10.8678 -0.519784 -0.725337
 -10.3249 -0.525731 -0.902113
 -9.67876 -1.40409 -0.387561
 -10 -1.05146 -0.701302
 -10.3212 -1.40409 -0.387561
 -9.67508 -0.525731 -0.902113
 -9.13222 -0.519784 -0.725337
 -9.48022 -1.72534 0.132223
 -9.14935 -1.37638 -0.175571
 -8.62362 -1.17557 0.149349
 -8.59591 -1.38756 0.678756
 -8.82443 -0.850651 -0.376382
 -10 -1.92388 0.453467
 -9.47427 -1.90211 0.67508
 -9.48022 -1.72534 1.86778
 -9.47427 -1.90211 1.32492
 -10 -1.92388 1.54653
 -8.94854 -1.7013 1
 -8.59591 -1.38756 1.32124
 -10.5198 -1.72534 0.132223
 -10.5257 -1.90211 0.67508
 -11.4041 -1.38756 1.32124
 -11.0515 -1.7013 1
 -11.4041 -1.38756 0.678756
 -10.5257 -1.90211 1.32492
 -10.5198 -1.72534 1.86778
 -11.7253 -0.867777 1.51978
 -11.3764 -1.17557 1.85065
 -10.8678 -0.519784 2.72534
 -11.1756 -0.850651 2.37638
 -11.3876 -0.321244 2.40409
 -10.8507 -1.37638 2.17557
 -10.3212 -1.40409 2.38756
 -10.3249 -0.525731 2.90211
 -9.13222 -0.519784 2.72534
 -9.67508 -0.525731 2.90211
 -10 -1.05146 2.7013
 -9.67876 -1.40409 2.38756
 -9.14935 -1.37638 2.17557
 -8.82443 -0.850651 2.37638
 -8.62362 -1.17557 1.85065
 -11.9021 0.32492 1.52573
 -11.9239 0.546533 1
 -11.7013 0 2.05146
 -11.9239 -0.546533 1
 -11.9021 -0.32492 1.52573
 -11.9021 0.32492 0.474269
 -11.7253 0.867777 0.480216
 -11.7253 -0.867777 0.480216
 -11.9021 -0.32492 0.474269
 -11.3876 0.321244 -0.404093
 -11.7013 0 -0.0514622
 -11.3876 -0.321244 -0.404093
 -11.3764 1.17557 0.149349
 -11.1756 0.850651 -0.376382
 -10.8507 1.37638 -0.175571
 -10.8507 -1.37638 -0.175571
 -11.1756 -0.850651 -0.376382
 -11.3764 -1.17557 0.149349
LINES 162 486
 2 0 1
 2 0 2
 2 0 3
 2 0 4
 2 0 5
 2 0 6
 2 0 7
 2 0 8
 2 0 9
 2 0 10
 2 0 11
 2 0 12
 2 0 13
 2 0 14
 2 0 15
 2 0 16
 2 0 17
 2 0 18
 2 0 19
 2 0 20
 2 0 21
 2 0 22
 2 0 23
 2 0 24
 2 0 25
 2 0 26
 2 0 27
 2 0 28
 2 0 29
 2 0 30
 2 0 31
 2 0 32
 2 0 33
 2 0 34
 2 0 35
 2 0 36
 2 0 37
 2 0 38
 2 0 39
 2 0 40
 2 0 41
 2 0 42
 2 0 43
 2 0 44
 2 0 45
 2 0 46
 2 0 47
 2 0 48
 2 0 49
 2 0 50
 2 0 51
 2 0 52
 2 0 53
 2 0 54
 2 0 55
 2 0 56
 2 0 57
 2 0 58
 2 0 59
 2 0 60
 2 0 61
 2 0 62
 2 0 63
 2 0 64
 2 0 65
 2 0 66
 2 0 67
 2 0 68
 2 0 69
 2 0 70
 2 0 71
 2 0 72
 2 0 73
 2 0 74
 2 0 75
 2 0 76
 2 0 77
 2 0 78
 2 0 79
 2 0 80
 2 0 81
 2 0 82
 2 0 83
 2 0 84
 2 0 85
 2 0 86
 2 0 87
 2 0 88
 2 0 89
 2 0 90
 2 0 91
 2 0 92
 2 0 93
 2 0 94
 2 0 95
 2 0 96
 2 0 97
 2 0 98
 2 0 99
 2 0 100
 2 0 101
 2 0 102
 2 0 103
 2 0 104
 2 0 105
 2 0 106
 2 0 107
 2 0 108
 2 0 109
 2 0 110
 2 0 111
 2 0 112
 2 0 113
 2 0 114
 2 0 115
 2 0 116
 2 0 117
 2 0 118
 2 0 119
 2 0 120
 2 0 121
 2 0 122
 2 0 123
 2 0 124
 2 0 125
 2 0 126
 2 0 127
 2 0 128
 2 0 129
 2 0 130
 2 0 131
 2 0 132
 2 0 133
 2 0 134
 2 0 135
 2 0 136
 2 0 137
 2 0 138
 2 0 139
 2 0 140
 2 0 141
 2 0 142
 2 0 143
 2 0 144
 2 0 145
 2 0 146
 2 0 147
 2 0 148
 2 0 149
 2 0 150
 2 0 151
 2 0 152
 2 0 153
 2 0 154
 2 0 155
 2 0 156
 2 0 157
 2 0 158
 2 0 159
 2 0 160
 2 0 161
 2 0 162
CELL_DATA 162
FIELD FieldData 1
LaunchID 1 162 int
 0
 1
 2
 3
 4
 5
 6
 7
 8
 9
 10
 11
 12
 13
 14
 15
 16
 17
 18
 19
 20
 21
 22
 23
 24
 25
 26
 27
 28
 29
 30
 31
 32
 33
 34
 35
 36
 37
 38
 39
 40
 41
 42
 43
 44
 45
 46
 47
 48
 49
 50
 51
 52
 53
 54
 55
 56
 57
 58
 59
 60
 61
 62
 63
 64
 65
 66
 67
 68
 69
 70
 71
 72
 73
 74
 75
 76
 77
 78
 79
 80
 81
 82
 83
 84
 85
 86
 87
 88
 89
 90
 91
 92
 93
 94
 95
 96
 97
 98
 99
 100
 101
 102
 103
 104
 105
 106
 107
 108
 109
 110
 111
 112
 113
 114
 115
 116
 117
 118
 119
 120
 121
 122
 123
 124
 125
 126
 127
 128
 129
 130
 131
 132
 133
 134
 135
 136
 137
 138
 139
 140
 141
 142
 143
 144
 145
 146
 147
 148
 149
 150
 151
 152
 153
 154
 155
 156
 157
 158
 159
 160
 161
