# vtk DataFile Version 2.0
TX Icosahedron Visualization
ASCII
DATASET POLYDATA

POINTS 163 float
 0.835938 4.53906 2.5
 0.310207 4.53906 3.35065
 1.36167 4.53906 3.35065
 0.310207 4.53906 1.64935
 1.36167 4.53906 1.64935
 0.835938 5.38971 3.02573
 0.835938 5.38971 1.97427
 0.835938 3.68841 3.02573
 0.835938 3.68841 1.97427
 1.68659 5.06479 2.5
 -0.0147128 5.06479 2.5
 1.68659 4.01333 2.5
 -0.0147128 4.01333 2.5
 0.526921 5.03906 3.30902
 1.14495 5.03906 3.30902
 0.835938 4.53906 3.5
 0.026921 4.84808 3
 0.335938 5.34808 2.80902
 0.335938 5.34808 2.19098
 0.835938 5.53906 2.5
 1.33594 5.34808 2.19098
 1.33594 5.34808 2.80902
 1.64495 4.84808 3
 1.83594 4.53906 2.5
 1.64495 4.23004 3
 1.64495 4.84808 2
 1.64495 4.23004 2
 1.14495 5.03906 1.69098
 0.526921 5.03906 1.69098
 0.835938 4.53906 1.5
 0.526921 4.03906 1.69098
 1.14495 4.03906 1.69098
 1.33594 3.73004 2.19098
 0.835938 3.53906 2.5
 1.33594 3.73004 2.80902
 0.335938 3.73004 2.19098
 0.335938 3.73004 2.80902
 0.026921 4.23004 3
 0.526921 4.03906 3.30902
 1.14495 4.03906 3.30902
 -0.164062 4.53906 2.5
 0.026921 4.23004 2
 0.026921 4.84808 2
 0.402049 4.79895 3.36267
 0.673478 4.80193 3.45106
 0.562671 4.53906 3.46194
 0.99656 5.24111 3.19378
 0.835938 5.06479 3.35065
 0.675316 5.24111 3.19378
 1.1092 4.53906 3.46194
 0.998398 4.80193 3.45106
 1.26983 4.79895 3.36267
 0.142158 4.69968 3.20205
 0.248153 4.96439 3.18819
 0.133892 5.23284 2.66062
 0.147747 5.12685 2.92533
 -0.0267305 4.97295 2.75989
 0.410613 5.22725 3.08779
 0.576046 5.40173 2.93389
 0.133892 5.23284 2.33938
 0.310207 5.38971 2.5
 0.835938 5.501 2.22673
 0.573072 5.49012 2.33754
 0.576046 5.40173 2.06611
 0.573072 5.49012 2.66246
 0.835938 5.501 2.77327
 1.0988 5.49012 2.66246
 1.09583 5.40173 2.93389
 1.09583 5.40173 2.06611
 1.0988 5.49012 2.33754
 1.53798 5.23284 2.66062
 1.36167 5.38971 2.5
 1.53798 5.23284 2.33938
 1.26126 5.22725 3.08779
 1.69861 4.97295 2.75989
 1.52413 5.12685 2.92533
 1.42372 4.96439 3.18819
 1.52972 4.69968 3.20205
 1.79788 4.81233 2.5
 1.78699 4.70152 2.76287
 1.69861 4.10517 2.75989
 1.78699 4.3766 2.76287
 1.79788 4.26579 2.5
 1.68659 4.53906 3.02573
 1.52972 4.37844 3.20205
 1.69861 4.97295 2.24011
 1.78699 4.70152 2.23713
 1.52972 4.37844 1.79795
 1.68659 4.53906 1.97427
 1.52972 4.69968 1.79795
 1.78699 4.3766 2.23713
 1.69861 4.10517 2.24011
 0.99656 5.24111 1.80622
 1.26126 5.22725 1.91221
 1.42372 4.96439 1.81181
 1.26983 4.79895 1.63733
 1.52413 5.12685 2.07467
 0.675316 5.24111 1.80622
 0.835938 5.06479 1.64935
 0.562671 4.53906 1.53806
 0.673478 4.80193 1.54894
 0.402049 4.79895 1.63733
 0.998398 4.80193 1.54894
 1.1092 4.53906 1.53806
 0.402049 4.27917 1.63733
 0.673478 4.27619 1.54894
 0.99656 3.83701 1.80622
 0.835938 4.01333 1.64935
 0.675316 3.83701 1.80622
 0.998398 4.27619 1.54894
 1.26983 4.27917 1.63733
 1.09583 3.67639 2.06611
 1.26126 3.85087 1.91221
 1.52413 3.95127 2.07467
 1.53798 3.84528 2.33938
 1.42372 4.11373 1.81181
 0.835938 3.57712 2.22673
 1.0988 3.588 2.33754
 1.09583 3.67639 2.93389
 1.0988 3.588 2.66246
 0.835938 3.57712 2.77327
 1.36167 3.68841 2.5
 1.53798 3.84528 2.66062
 0.576046 3.67639 2.06611
 0.573072 3.588 2.33754
 0.133892 3.84528 2.66062
 0.310207 3.68841 2.5
 0.133892 3.84528 2.33938
 0.573072 3.588 2.66246
 0.576046 3.67639 2.93389
 -0.0267305 4.10517 2.75989
 0.147747 3.95127 2.92533
 0.402049 4.27917 3.36267
 0.248153 4.11373 3.18819
 0.142158 4.37844 3.20205
 0.410613 3.85087 3.08779
 0.675316 3.83701 3.19378
 0.673478 4.27619 3.45106
 1.26983 4.27917 3.36267
 0.998398 4.27619 3.45106
 0.835938 4.01333 3.35065
 0.99656 3.83701 3.19378
 1.26126 3.85087 3.08779
 1.42372 4.11373 3.18819
 1.52413 3.95127 2.92533
 -0.115119 4.70152 2.76287
 -0.126 4.81233 2.5
 -0.0147128 4.53906 3.02573
 -0.126 4.26579 2.5
 -0.115119 4.3766 2.76287
 -0.115119 4.70152 2.23713
 -0.0267305 4.97295 2.24011
 -0.0267305 4.10517 2.24011
 -0.115119 4.3766 2.23713
 0.142158 4.69968 1.79795
 -0.0147128 4.53906 1.97427
 0.142158 4.37844 1.79795
 0.147747 5.12685 2.07467
 0.248153 4.96439 1.81181
 0.410613 5.22725 1.91221
 0.410613 3.85087 1.91221
 0.248153 4.11373 1.81181
 0.147747 3.95127 2.07467
LINES 162 486
 2 0 1
 2 0 2
 2 0 3
 2 0 4
 2 0 5
 2 0 6
 2 0 7
 2 0 8
 2 0 9
 2 0 10
 2 0 11
 2 0 12
 2 0 13
 2 0 14
 2 0 15
 2 0 16
 2 0 17
 2 0 18
 2 0 19
 2 0 20
 2 0 21
 2 0 22
 2 0 23
 2 0 24
 2 0 25
 2 0 26
 2 0 27
 2 0 28
 2 0 29
 2 0 30
 2 0 31
 2 0 32
 2 0 33
 2 0 34
 2 0 35
 2 0 36
 2 0 37
 2 0 38
 2 0 39
 2 0 40
 2 0 41
 2 0 42
 2 0 43
 2 0 44
 2 0 45
 2 0 46
 2 0 47
 2 0 48
 2 0 49
 2 0 50
 2 0 51
 2 0 52
 2 0 53
 2 0 54
 2 0 55
 2 0 56
 2 0 57
 2 0 58
 2 0 59
 2 0 60
 2 0 61
 2 0 62
 2 0 63
 2 0 64
 2 0 65
 2 0 66
 2 0 67
 2 0 68
 2 0 69
 2 0 70
 2 0 71
 2 0 72
 2 0 73
 2 0 74
 2 0 75
 2 0 76
 2 0 77
 2 0 78
 2 0 79
 2 0 80
 2 0 81
 2 0 82
 2 0 83
 2 0 84
 2 0 85
 2 0 86
 2 0 87
 2 0 88
 2 0 89
 2 0 90
 2 0 91
 2 0 92
 2 0 93
 2 0 94
 2 0 95
 2 0 96
 2 0 97
 2 0 98
 2 0 99
 2 0 100
 2 0 101
 2 0 102
 2 0 103
 2 0 104
 2 0 105
 2 0 106
 2 0 107
 2 0 108
 2 0 109
 2 0 110
 2 0 111
 2 0 112
 2 0 113
 2 0 114
 2 0 115
 2 0 116
 2 0 117
 2 0 118
 2 0 119
 2 0 120
 2 0 121
 2 0 122
 2 0 123
 2 0 124
 2 0 125
 2 0 126
 2 0 127
 2 0 128
 2 0 129
 2 0 130
 2 0 131
 2 0 132
 2 0 133
 2 0 134
 2 0 135
 2 0 136
 2 0 137
 2 0 138
 2 0 139
 2 0 140
 2 0 141
 2 0 142
 2 0 143
 2 0 144
 2 0 145
 2 0 146
 2 0 147
 2 0 148
 2 0 149
 2 0 150
 2 0 151
 2 0 152
 2 0 153
 2 0 154
 2 0 155
 2 0 156
 2 0 157
 2 0 158
 2 0 159
 2 0 160
 2 0 161
 2 0 162
CELL_DATA 162
FIELD FieldData 1
LaunchID 1 162 int
 0
 1
 2
 3
 4
 5
 6
 7
 8
 9
 10
 11
 12
 13
 14
 15
 16
 17
 18
 19
 20
 21
 22
 23
 24
 25
 26
 27
 28
 29
 30
 31
 32
 33
 34
 35
 36
 37
 38
 39
 40
 41
 42
 43
 44
 45
 46
 47
 48
 49
 50
 51
 52
 53
 54
 55
 56
 57
 58
 59
 60
 61
 62
 63
 64
 65
 66
 67
 68
 69
 70
 71
 72
 73
 74
 75
 76
 77
 78
 79
 80
 81
 82
 83
 84
 85
 86
 87
 88
 89
 90
 91
 92
 93
 94
 95
 96
 97
 98
 99
 100
 101
 102
 103
 104
 105
 106
 107
 108
 109
 110
 111
 112
 113
 114
 115
 116
 117
 118
 119
 120
 121
 122
 123
 124
 125
 126
 127
 128
 129
 130
 131
 132
 133
 134
 135
 136
 137
 138
 139
 140
 141
 142
 143
 144
 145
 146
 147
 148
 149
 150
 151
 152
 153
 154
 155
 156
 157
 158
 159
 160
 161
