# vtk DataFile Version 2.0
TX Icosahedron Visualization
ASCII
DATASET POLYDATA

POINTS 163 float
 0 0 5
 -0.525731 0 5.85065
 0.525731 0 5.85065
 -0.525731 0 4.14935
 0.525731 0 4.14935
 0 0.850651 5.52573
 0 0.850651 4.47427
 0 -0.850651 5.52573
 0 -0.850651 4.47427
 0.850651 0.525731 5
 -0.850651 0.525731 5
 0.850651 -0.525731 5
 -0.850651 -0.525731 5
 -0.309017 0.5 5.80902
 0.309017 0.5 5.80902
 0 0 6
 -0.809017 0.309017 5.5
 -0.5 0.809017 5.30902
 -0.5 0.809017 4.69098
 0 1 5
 0.5 0.809017 4.69098
 0.5 0.809017 5.30902
 0.809017 0.309017 5.5
 1 0 5
 0.809017 -0.309017 5.5
 0.809017 0.309017 4.5
 0.809017 -0.309017 4.5
 0.309017 0.5 4.19098
 -0.309017 0.5 4.19098
 0 0 4
 -0.309017 -0.5 4.19098
 0.309017 -0.5 4.19098
 0.5 -0.809017 4.69098
 0 -1 5
 0.5 -0.809017 5.30902
 -0.5 -0.809017 4.69098
 -0.5 -0.809017 5.30902
 -0.809017 -0.309017 5.5
 -0.309017 -0.5 5.80902
 0.309017 -0.5 5.80902
 -1 0 5
 -0.809017 -0.309017 4.5
 -0.809017 0.309017 4.5
 -0.433889 0.259892 5.86267
 -0.16246 0.262866 5.95106
 -0.273267 0 5.96194
 0.160622 0.702046 5.69378
 0 0.525731 5.85065
 -0.160622 0.702046 5.69378
 0.273267 0 5.96194
 0.16246 0.262866 5.95106
 0.433889 0.259892 5.86267
 -0.69378 0.160622 5.70205
 -0.587785 0.425325 5.68819
 -0.702046 0.69378 5.16062
 -0.688191 0.587785 5.42533
 -0.862668 0.433889 5.25989
 -0.425325 0.688191 5.58779
 -0.259892 0.862668 5.43389
 -0.702046 0.69378 4.83938
 -0.525731 0.850651 5
 0 0.961938 4.72673
 -0.262866 0.951057 4.83754
 -0.259892 0.862668 4.56611
 -0.262866 0.951057 5.16246
 0 0.961938 5.27327
 0.262866 0.951057 5.16246
 0.259892 0.862668 5.43389
 0.259892 0.862668 4.56611
 0.262866 0.951057 4.83754
 0.702046 0.69378 5.16062
 0.525731 0.850651 5
 0.702046 0.69378 4.83938
 0.425325 0.688191 5.58779
 0.862668 0.433889 5.25989
 0.688191 0.587785 5.42533
 0.587785 0.425325 5.68819
 0.69378 0.160622 5.70205
 0.961938 0.273267 5
 0.951057 0.16246 5.26287
 0.862668 -0.433889 5.25989
 0.951057 -0.16246 5.26287
 0.961938 -0.273267 5
 0.850651 0 5.52573
 0.69378 -0.160622 5.70205
 0.862668 0.433889 4.74011
 0.951057 0.16246 4.73713
 0.69378 -0.160622 4.29795
 0.850651 0 4.47427
 0.69378 0.160622 4.29795
 0.951057 -0.16246 4.73713
 0.862668 -0.433889 4.74011
 0.160622 0.702046 4.30622
 0.425325 0.688191 4.41221
 0.587785 0.425325 4.31181
 0.433889 0.259892 4.13733
 0.688191 0.587785 4.57467
 -0.160622 0.702046 4.30622
 0 0.525731 4.14935
 -0.273267 0 4.03806
 -0.16246 0.262866 4.04894
 -0.433889 0.259892 4.13733
 0.16246 0.262866 4.04894
 0.273267 0 4.03806
 -0.433889 -0.259892 4.13733
 -0.16246 -0.262866 4.04894
 0.160622 -0.702046 4.30622
 0 -0.525731 4.14935
 -0.160622 -0.702046 4.30622
 0.16246 -0.262866 4.04894
 0.433889 -0.259892 4.13733
 0.259892 -0.862668 4.56611
 0.425325 -0.688191 4.41221
 0.688191 -0.587785 4.57467
 0.702046 -0.69378 4.83938
 0.587785 -0.425325 4.31181
 0 -0.961938 4.72673
 0.262866 -0.951057 4.83754
 0.259892 -0.862668 5.43389
 0.262866 -0.951057 5.16246
 0 -0.961938 5.27327
 0.525731 -0.850651 5
 0.702046 -0.69378 5.16062
 -0.259892 -0.862668 4.56611
 -0.262866 -0.951057 4.83754
 -0.702046 -0.69378 5.16062
 -0.525731 -0.850651 5
 -0.702046 -0.69378 4.83938
 -0.262866 -0.951057 5.16246
 -0.259892 -0.862668 5.43389
 -0.862668 -0.433889 5.25989
 -0.688191 -0.587785 5.42533
 -0.433889 -0.259892 5.86267
 -0.587785 -0.425325 5.68819
 -0.69378 -0.160622 5.70205
 -0.425325 -0.688191 5.58779
 -0.160622 -0.702046 5.69378
 -0.16246 -0.262866 5.95106
 0.433889 -0.259892 5.86267
 0.16246 -0.262866 5.95106
 0 -0.525731 5.85065
 0.160622 -0.702046 5.69378
 0.425325 -0.688191 5.58779
 0.587785 -0.425325 5.68819
 0.688191 -0.587785 5.42533
 -0.951057 0.16246 5.26287
 -0.961938 0.273267 5
 -0.850651 0 5.52573
 -0.961938 -0.273267 5
 -0.951057 -0.16246 5.26287
 -0.951057 0.16246 4.73713
 -0.862668 0.433889 4.74011
 -0.862668 -0.433889 4.74011
 -0.951057 -0.16246 4.73713
 -0.69378 0.160622 4.29795
 -0.850651 0 4.47427
 -0.69378 -0.160622 4.29795
 -0.688191 0.587785 4.57467
 -0.587785 0.425325 4.31181
 -0.425325 0.688191 4.41221
 -0.425325 -0.688191 4.41221
 -0.587785 -0.425325 4.31181
 -0.688191 -0.587785 4.57467
LINES 162 486
 2 0 1
 2 0 2
 2 0 3
 2 0 4
 2 0 5
 2 0 6
 2 0 7
 2 0 8
 2 0 9
 2 0 10
 2 0 11
 2 0 12
 2 0 13
 2 0 14
 2 0 15
 2 0 16
 2 0 17
 2 0 18
 2 0 19
 2 0 20
 2 0 21
 2 0 22
 2 0 23
 2 0 24
 2 0 25
 2 0 26
 2 0 27
 2 0 28
 2 0 29
 2 0 30
 2 0 31
 2 0 32
 2 0 33
 2 0 34
 2 0 35
 2 0 36
 2 0 37
 2 0 38
 2 0 39
 2 0 40
 2 0 41
 2 0 42
 2 0 43
 2 0 44
 2 0 45
 2 0 46
 2 0 47
 2 0 48
 2 0 49
 2 0 50
 2 0 51
 2 0 52
 2 0 53
 2 0 54
 2 0 55
 2 0 56
 2 0 57
 2 0 58
 2 0 59
 2 0 60
 2 0 61
 2 0 62
 2 0 63
 2 0 64
 2 0 65
 2 0 66
 2 0 67
 2 0 68
 2 0 69
 2 0 70
 2 0 71
 2 0 72
 2 0 73
 2 0 74
 2 0 75
 2 0 76
 2 0 77
 2 0 78
 2 0 79
 2 0 80
 2 0 81
 2 0 82
 2 0 83
 2 0 84
 2 0 85
 2 0 86
 2 0 87
 2 0 88
 2 0 89
 2 0 90
 2 0 91
 2 0 92
 2 0 93
 2 0 94
 2 0 95
 2 0 96
 2 0 97
 2 0 98
 2 0 99
 2 0 100
 2 0 101
 2 0 102
 2 0 103
 2 0 104
 2 0 105
 2 0 106
 2 0 107
 2 0 108
 2 0 109
 2 0 110
 2 0 111
 2 0 112
 2 0 113
 2 0 114
 2 0 115
 2 0 116
 2 0 117
 2 0 118
 2 0 119
 2 0 120
 2 0 121
 2 0 122
 2 0 123
 2 0 124
 2 0 125
 2 0 126
 2 0 127
 2 0 128
 2 0 129
 2 0 130
 2 0 131
 2 0 132
 2 0 133
 2 0 134
 2 0 135
 2 0 136
 2 0 137
 2 0 138
 2 0 139
 2 0 140
 2 0 141
 2 0 142
 2 0 143
 2 0 144
 2 0 145
 2 0 146
 2 0 147
 2 0 148
 2 0 149
 2 0 150
 2 0 151
 2 0 152
 2 0 153
 2 0 154
 2 0 155
 2 0 156
 2 0 157
 2 0 158
 2 0 159
 2 0 160
 2 0 161
 2 0 162
CELL_DATA 162
FIELD FieldData 1
LaunchID 1 162 int
 0
 1
 2
 3
 4
 5
 6
 7
 8
 9
 10
 11
 12
 13
 14
 15
 16
 17
 18
 19
 20
 21
 22
 23
 24
 25
 26
 27
 28
 29
 30
 31
 32
 33
 34
 35
 36
 37
 38
 39
 40
 41
 42
 43
 44
 45
 46
 47
 48
 49
 50
 51
 52
 53
 54
 55
 56
 57
 58
 59
 60
 61
 62
 63
 64
 65
 66
 67
 68
 69
 70
 71
 72
 73
 74
 75
 76
 77
 78
 79
 80
 81
 82
 83
 84
 85
 86
 87
 88
 89
 90
 91
 92
 93
 94
 95
 96
 97
 98
 99
 100
 101
 102
 103
 104
 105
 106
 107
 108
 109
 110
 111
 112
 113
 114
 115
 116
 117
 118
 119
 120
 121
 122
 123
 124
 125
 126
 127
 128
 129
 130
 131
 132
 133
 134
 135
 136
 137
 138
 139
 140
 141
 142
 143
 144
 145
 146
 147
 148
 149
 150
 151
 152
 153
 154
 155
 156
 157
 158
 159
 160
 161
