# vtk DataFile Version 2.0
TX Icosahedron Visualization
ASCII
DATASET POLYDATA

POINTS 163 float
 0 0 5
 -1.05146 0 6.7013
 1.05146 0 6.7013
 -1.05146 0 3.2987
 1.05146 0 3.2987
 0 1.7013 6.05146
 0 1.7013 3.94854
 0 -1.7013 6.05146
 0 -1.7013 3.94854
 1.7013 1.05146 5
 -1.7013 1.05146 5
 1.7013 -1.05146 5
 -1.7013 -1.05146 5
 -0.618034 1 6.61803
 0.618034 1 6.61803
 0 0 7
 -1.61803 0.618034 6
 -1 1.61803 5.61803
 -1 1.61803 4.38197
 0 2 5
 1 1.61803 4.38197
 1 1.61803 5.61803
 1.61803 0.618034 6
 2 0 5
 1.61803 -0.618034 6
 1.61803 0.618034 4
 1.61803 -0.618034 4
 0.618034 1 3.38197
 -0.618034 1 3.38197
 0 0 3
 -0.618034 -1 3.38197
 0.618034 -1 3.38197
 1 -1.61803 4.38197
 0 -2 5
 1 -1.61803 5.61803
 -1 -1.61803 4.38197
 -1 -1.61803 5.61803
 -1.61803 -0.618034 6
 -0.618034 -1 6.61803
 0.618034 -1 6.61803
 -2 0 5
 -1.61803 -0.618034 4
 -1.61803 0.618034 4
 -0.867777 0.519784 6.72534
 -0.32492 0.525731 6.90211
 -0.546533 0 6.92388
 0.321244 1.40409 6.38756
 0 1.05146 6.7013
 -0.321244 1.40409 6.38756
 0.546533 0 6.92388
 0.32492 0.525731 6.90211
 0.867777 0.519784 6.72534
 -1.38756 0.321244 6.40409
 -1.17557 0.850651 6.37638
 -1.40409 1.38756 5.32124
 -1.37638 1.17557 5.85065
 -1.72534 0.867777 5.51978
 -0.850651 1.37638 6.17557
 -0.519784 1.72534 5.86778
 -1.40409 1.38756 4.67876
 -1.05146 1.7013 5
 0 1.92388 4.45347
 -0.525731 1.90211 4.67508
 -0.519784 1.72534 4.13222
 -0.525731 1.90211 5.32492
 0 1.92388 5.54653
 0.525731 1.90211 5.32492
 0.519784 1.72534 5.86778
 0.519784 1.72534 4.13222
 0.525731 1.90211 4.67508
 1.40409 1.38756 5.32124
 1.05146 1.7013 5
 1.40409 1.38756 4.67876
 0.850651 1.37638 6.17557
 1.72534 0.867777 5.51978
 1.37638 1.17557 5.85065
 1.17557 0.850651 6.37638
 1.38756 0.321244 6.40409
 1.92388 0.546533 5
 1.90211 0.32492 5.52573
 1.72534 -0.867777 5.51978
 1.90211 -0.32492 5.52573
 1.92388 -0.546533 5
 1.7013 0 6.05146
 1.38756 -0.321244 6.40409
 1.72534 0.867777 4.48022
 1.90211 0.32492 4.47427
 1.38756 -0.321244 3.59591
 1.7013 0 3.94854
 1.38756 0.321244 3.59591
 1.90211 -0.32492 4.47427
 1.72534 -0.867777 4.48022
 0.321244 1.40409 3.61244
 0.850651 1.37638 3.82443
 1.17557 0.850651 3.62362
 0.867777 0.519784 3.27466
 1.37638 1.17557 4.14935
 -0.321244 1.40409 3.61244
 0 1.05146 3.2987
 -0.546533 0 3.07612
 -0.32492 0.525731 3.09789
 -0.867777 0.519784 3.27466
 0.32492 0.525731 3.09789
 0.546533 0 3.07612
 -0.867777 -0.519784 3.27466
 -0.32492 -0.525731 3.09789
 0.321244 -1.40409 3.61244
 0 -1.05146 3.2987
 -0.321244 -1.40409 3.61244
 0.32492 -0.525731 3.09789
 0.867777 -0.519784 3.27466
 0.519784 -1.72534 4.13222
 0.850651 -1.37638 3.82443
 1.37638 -1.17557 4.14935
 1.40409 -1.38756 4.67876
 1.17557 -0.850651 3.62362
 0 -1.92388 4.45347
 0.525731 -1.90211 4.67508
 0.519784 -1.72534 5.86778
 0.525731 -1.90211 5.32492
 0 -1.92388 5.54653
 1.05146 -1.7013 5
 1.40409 -1.38756 5.32124
 -0.519784 -1.72534 4.13222
 -0.525731 -1.90211 4.67508
 -1.40409 -1.38756 5.32124
 -1.05146 -1.7013 5
 -1.40409 -1.38756 4.67876
 -0.525731 -1.90211 5.32492
 -0.519784 -1.72534 5.86778
 -1.72534 -0.867777 5.51978
 -1.37638 -1.17557 5.85065
 -0.867777 -0.519784 6.72534
 -1.17557 -0.850651 6.37638
 -1.38756 -0.321244 6.40409
 -0.850651 -1.37638 6.17557
 -0.321244 -1.40409 6.38756
 -0.32492 -0.525731 6.90211
 0.867777 -0.519784 6.72534
 0.32492 -0.525731 6.90211
 0 -1.05146 6.7013
 0.321244 -1.40409 6.38756
 0.850651 -1.37638 6.17557
 1.17557 -0.850651 6.37638
 1.37638 -1.17557 5.85065
 -1.90211 0.32492 5.52573
 -1.92388 0.546533 5
 -1.7013 0 6.05146
 -1.92388 -0.546533 5
 -1.90211 -0.32492 5.52573
 -1.90211 0.32492 4.47427
 -1.72534 0.867777 4.48022
 -1.72534 -0.867777 4.48022
 -1.90211 -0.32492 4.47427
 -1.38756 0.321244 3.59591
 -1.7013 0 3.94854
 -1.38756 -0.321244 3.59591
 -1.37638 1.17557 4.14935
 -1.17557 0.850651 3.62362
 -0.850651 1.37638 3.82443
 -0.850651 -1.37638 3.82443
 -1.17557 -0.850651 3.62362
 -1.37638 -1.17557 4.14935
LINES 162 486
 2 0 1
 2 0 2
 2 0 3
 2 0 4
 2 0 5
 2 0 6
 2 0 7
 2 0 8
 2 0 9
 2 0 10
 2 0 11
 2 0 12
 2 0 13
 2 0 14
 2 0 15
 2 0 16
 2 0 17
 2 0 18
 2 0 19
 2 0 20
 2 0 21
 2 0 22
 2 0 23
 2 0 24
 2 0 25
 2 0 26
 2 0 27
 2 0 28
 2 0 29
 2 0 30
 2 0 31
 2 0 32
 2 0 33
 2 0 34
 2 0 35
 2 0 36
 2 0 37
 2 0 38
 2 0 39
 2 0 40
 2 0 41
 2 0 42
 2 0 43
 2 0 44
 2 0 45
 2 0 46
 2 0 47
 2 0 48
 2 0 49
 2 0 50
 2 0 51
 2 0 52
 2 0 53
 2 0 54
 2 0 55
 2 0 56
 2 0 57
 2 0 58
 2 0 59
 2 0 60
 2 0 61
 2 0 62
 2 0 63
 2 0 64
 2 0 65
 2 0 66
 2 0 67
 2 0 68
 2 0 69
 2 0 70
 2 0 71
 2 0 72
 2 0 73
 2 0 74
 2 0 75
 2 0 76
 2 0 77
 2 0 78
 2 0 79
 2 0 80
 2 0 81
 2 0 82
 2 0 83
 2 0 84
 2 0 85
 2 0 86
 2 0 87
 2 0 88
 2 0 89
 2 0 90
 2 0 91
 2 0 92
 2 0 93
 2 0 94
 2 0 95
 2 0 96
 2 0 97
 2 0 98
 2 0 99
 2 0 100
 2 0 101
 2 0 102
 2 0 103
 2 0 104
 2 0 105
 2 0 106
 2 0 107
 2 0 108
 2 0 109
 2 0 110
 2 0 111
 2 0 112
 2 0 113
 2 0 114
 2 0 115
 2 0 116
 2 0 117
 2 0 118
 2 0 119
 2 0 120
 2 0 121
 2 0 122
 2 0 123
 2 0 124
 2 0 125
 2 0 126
 2 0 127
 2 0 128
 2 0 129
 2 0 130
 2 0 131
 2 0 132
 2 0 133
 2 0 134
 2 0 135
 2 0 136
 2 0 137
 2 0 138
 2 0 139
 2 0 140
 2 0 141
 2 0 142
 2 0 143
 2 0 144
 2 0 145
 2 0 146
 2 0 147
 2 0 148
 2 0 149
 2 0 150
 2 0 151
 2 0 152
 2 0 153
 2 0 154
 2 0 155
 2 0 156
 2 0 157
 2 0 158
 2 0 159
 2 0 160
 2 0 161
 2 0 162
CELL_DATA 162
FIELD FieldData 1
LaunchID 1 162 int
 0
 1
 2
 3
 4
 5
 6
 7
 8
 9
 10
 11
 12
 13
 14
 15
 16
 17
 18
 19
 20
 21
 22
 23
 24
 25
 26
 27
 28
 29
 30
 31
 32
 33
 34
 35
 36
 37
 38
 39
 40
 41
 42
 43
 44
 45
 46
 47
 48
 49
 50
 51
 52
 53
 54
 55
 56
 57
 58
 59
 60
 61
 62
 63
 64
 65
 66
 67
 68
 69
 70
 71
 72
 73
 74
 75
 76
 77
 78
 79
 80
 81
 82
 83
 84
 85
 86
 87
 88
 89
 90
 91
 92
 93
 94
 95
 96
 97
 98
 99
 100
 101
 102
 103
 104
 105
 106
 107
 108
 109
 110
 111
 112
 113
 114
 115
 116
 117
 118
 119
 120
 121
 122
 123
 124
 125
 126
 127
 128
 129
 130
 131
 132
 133
 134
 135
 136
 137
 138
 139
 140
 141
 142
 143
 144
 145
 146
 147
 148
 149
 150
 151
 152
 153
 154
 155
 156
 157
 158
 159
 160
 161
