# vtk DataFile Version 2.0
TX Icosahedron Visualization
ASCII
DATASET POLYDATA

POINTS 643 float
 0 0 5
 -0.525731 0 5.85065
 0.525731 0 5.85065
 -0.525731 0 4.14935
 0.525731 0 4.14935
 0 0.850651 5.52573
 0 0.850651 4.47427
 0 -0.850651 5.52573
 0 -0.850651 4.47427
 0.850651 0.525731 5
 -0.850651 0.525731 5
 0.850651 -0.525731 5
 -0.850651 -0.525731 5
 -0.309017 0.5 5.80902
 0.309017 0.5 5.80902
 0 0 6
 -0.809017 0.309017 5.5
 -0.5 0.809017 5.30902
 -0.5 0.809017 4.69098
 0 1 5
 0.5 0.809017 4.69098
 0.5 0.809017 5.30902
 0.809017 0.309017 5.5
 1 0 5
 0.809017 -0.309017 5.5
 0.809017 0.309017 4.5
 0.809017 -0.309017 4.5
 0.309017 0.5 4.19098
 -0.309017 0.5 4.19098
 0 0 4
 -0.309017 -0.5 4.19098
 0.309017 -0.5 4.19098
 0.5 -0.809017 4.69098
 0 -1 5
 0.5 -0.809017 5.30902
 -0.5 -0.809017 4.69098
 -0.5 -0.809017 5.30902
 -0.809017 -0.309017 5.5
 -0.309017 -0.5 5.80902
 0.309017 -0.5 5.80902
 -1 0 5
 -0.809017 -0.309017 4.5
 -0.809017 0.309017 4.5
 -0.433889 0.259892 5.86267
 -0.16246 0.262866 5.95106
 -0.273267 0 5.96194
 0.160622 0.702046 5.69378
 0 0.525731 5.85065
 -0.160622 0.702046 5.69378
 0.273267 0 5.96194
 0.16246 0.262866 5.95106
 0.433889 0.259892 5.86267
 -0.69378 0.160622 5.70205
 -0.587785 0.425325 5.68819
 -0.702046 0.69378 5.16062
 -0.688191 0.587785 5.42533
 -0.862668 0.433889 5.25989
 -0.425325 0.688191 5.58779
 -0.259892 0.862668 5.43389
 -0.702046 0.69378 4.83938
 -0.525731 0.850651 5
 0 0.961938 4.72673
 -0.262866 0.951057 4.83754
 -0.259892 0.862668 4.56611
 -0.262866 0.951057 5.16246
 0 0.961938 5.27327
 0.262866 0.951057 5.16246
 0.259892 0.862668 5.43389
 0.259892 0.862668 4.56611
 0.262866 0.951057 4.83754
 0.702046 0.69378 5.16062
 0.525731 0.850651 5
 0.702046 0.69378 4.83938
 0.425325 0.688191 5.58779
 0.862668 0.433889 5.25989
 0.688191 0.587785 5.42533
 0.587785 0.425325 5.68819
 0.69378 0.160622 5.70205
 0.961938 0.273267 5
 0.951057 0.16246 5.26287
 0.862668 -0.433889 5.25989
 0.951057 -0.16246 5.26287
 0.961938 -0.273267 5
 0.850651 0 5.52573
 0.69378 -0.160622 5.70205
 0.862668 0.433889 4.74011
 0.951057 0.16246 4.73713
 0.69378 -0.160622 4.29795
 0.850651 0 4.47427
 0.69378 0.160622 4.29795
 0.951057 -0.16246 4.73713
 0.862668 -0.433889 4.74011
 0.160622 0.702046 4.30622
 0.425325 0.688191 4.41221
 0.587785 0.425325 4.31181
 0.433889 0.259892 4.13733
 0.688191 0.587785 4.57467
 -0.160622 0.702046 4.30622
 0 0.525731 4.14935
 -0.273267 0 4.03806
 -0.16246 0.262866 4.04894
 -0.433889 0.259892 4.13733
 0.16246 0.262866 4.04894
 0.273267 0 4.03806
 -0.433889 -0.259892 4.13733
 -0.16246 -0.262866 4.04894
 0.160622 -0.702046 4.30622
 0 -0.525731 4.14935
 -0.160622 -0.702046 4.30622
 0.16246 -0.262866 4.04894
 0.433889 -0.259892 4.13733
 0.259892 -0.862668 4.56611
 0.425325 -0.688191 4.41221
 0.688191 -0.587785 4.57467
 0.702046 -0.69378 4.83938
 0.587785 -0.425325 4.31181
 0 -0.961938 4.72673
 0.262866 -0.951057 4.83754
 0.259892 -0.862668 5.43389
 0.262866 -0.951057 5.16246
 0 -0.961938 5.27327
 0.525731 -0.850651 5
 0.702046 -0.69378 5.16062
 -0.259892 -0.862668 4.56611
 -0.262866 -0.951057 4.83754
 -0.702046 -0.69378 5.16062
 -0.525731 -0.850651 5
 -0.702046 -0.69378 4.83938
 -0.262866 -0.951057 5.16246
 -0.259892 -0.862668 5.43389
 -0.862668 -0.433889 5.25989
 -0.688191 -0.587785 5.42533
 -0.433889 -0.259892 5.86267
 -0.587785 -0.425325 5.68819
 -0.69378 -0.160622 5.70205
 -0.425325 -0.688191 5.58779
 -0.160622 -0.702046 5.69378
 -0.16246 -0.262866 5.95106
 0.433889 -0.259892 5.86267
 0.16246 -0.262866 5.95106
 0 -0.525731 5.85065
 0.160622 -0.702046 5.69378
 0.425325 -0.688191 5.58779
 0.587785 -0.425325 5.68819
 0.688191 -0.587785 5.42533
 -0.951057 0.16246 5.26287
 -0.961938 0.273267 5
 -0.850651 0 5.52573
 -0.961938 -0.273267 5
 -0.951057 -0.16246 5.26287
 -0.951057 0.16246 4.73713
 -0.862668 0.433889 4.74011
 -0.862668 -0.433889 4.74011
 -0.951057 -0.16246 4.73713
 -0.69378 0.160622 4.29795
 -0.850651 0 4.47427
 -0.69378 -0.160622 4.29795
 -0.688191 0.587785 4.57467
 -0.587785 0.425325 4.31181
 -0.425325 0.688191 4.41221
 -0.425325 -0.688191 4.41221
 -0.587785 -0.425325 4.31181
 -0.688191 -0.587785 4.57467
 -0.484442 0.1312 5.86493
 -0.358229 0.131655 5.9243
 -0.403355 0 5.91504
 -0.238677 0.386187 5.89101
 -0.301259 0.264083 5.91624
 -0.375039 0.383614 5.84391
 -0.137952 0 5.99044
 -0.220117 0.132792 5.96639
 -0.0822425 0.133071 5.98769
 0.0810863 0.783843 5.61564
 0 0.711282 5.70291
 -0.0810863 0.783843 5.61564
 0.156434 0.519258 5.84018
 0.0811419 0.62024 5.7802
 0.237086 0.606825 5.75865
 -0.237086 0.606825 5.75865
 -0.0811419 0.62024 5.7802
 -0.156434 0.519258 5.84018
 0.403355 0 5.91504
 0.358229 0.131655 5.9243
 0.484442 0.1312 5.86493
 0.0822425 0.133071 5.98769
 0.220117 0.132792 5.96639
 0.137952 0 5.99044
 0.375039 0.383614 5.84391
 0.301259 0.264083 5.91624
 0.238677 0.386187 5.89101
 -0.0823236 0.399607 5.91298
 0.0823236 0.399607 5.91298
 0 0.266405 5.96386
 -0.615642 0.0810863 5.78384
 -0.571252 0.213023 5.79265
 -0.707107 0.371748 5.6015
 -0.647412 0.296005 5.70231
 -0.758652 0.237086 5.60683
 -0.516122 0.346153 5.78345
 -0.45399 0.46843 5.75794
 -0.783843 0.615642 5.08109
 -0.792649 0.571252 5.21302
 -0.864929 0.484442 5.1312
 -0.601501 0.707107 5.37175
 -0.70231 0.647412 5.296
 -0.606825 0.758652 5.23709
 -0.843911 0.375039 5.38361
 -0.783452 0.516122 5.34615
 -0.757935 0.45399 5.46843
 -0.213023 0.792649 5.57125
 -0.1312 0.864929 5.48444
 -0.371748 0.601501 5.70711
 -0.296005 0.70231 5.64741
 -0.383614 0.843911 5.37504
 -0.346153 0.783452 5.51612
 -0.46843 0.757935 5.45399
 -0.646578 0.513375 5.56425
 -0.564254 0.646578 5.51338
 -0.513375 0.564254 5.64658
 -0.783843 0.615642 4.91891
 -0.711282 0.702907 5
 -0.519258 0.840178 4.84357
 -0.62024 0.780204 4.91886
 -0.606825 0.758652 4.76291
 -0.62024 0.780204 5.08114
 -0.519258 0.840178 5.15643
 0 0.915043 4.59664
 -0.131655 0.924305 4.64177
 -0.1312 0.864929 4.51556
 -0.133071 0.987688 4.91776
 -0.132792 0.966393 4.77988
 0 0.990439 4.86205
 -0.383614 0.843911 4.62496
 -0.264083 0.916244 4.69874
 -0.386187 0.891007 4.76132
 -0.131655 0.924305 5.35823
 0 0.915043 5.40336
 -0.386187 0.891007 5.23868
 -0.264083 0.916244 5.30126
 0 0.990439 5.13795
 -0.132792 0.966393 5.22012
 -0.133071 0.987688 5.08224
 -0.399607 0.912982 4.91768
 -0.266405 0.963861 5
 -0.399607 0.912982 5.08232
 0.131655 0.924305 5.35823
 0.1312 0.864929 5.48444
 0.133071 0.987688 5.08224
 0.132792 0.966393 5.22012
 0.383614 0.843911 5.37504
 0.264083 0.916244 5.30126
 0.386187 0.891007 5.23868
 0.1312 0.864929 4.51556
 0.131655 0.924305 4.64177
 0.386187 0.891007 4.76132
 0.264083 0.916244 4.69874
 0.383614 0.843911 4.62496
 0.132792 0.966393 4.77988
 0.133071 0.987688 4.91776
 0.783843 0.615642 5.08109
 0.711282 0.702907 5
 0.783843 0.615642 4.91891
 0.519258 0.840178 5.15643
 0.62024 0.780204 5.08114
 0.606825 0.758652 5.23709
 0.606825 0.758652 4.76291
 0.62024 0.780204 4.91886
 0.519258 0.840178 4.84357
 0.266405 0.963861 5
 0.399607 0.912982 4.91768
 0.399607 0.912982 5.08232
 0.213023 0.792649 5.57125
 0.46843 0.757935 5.45399
 0.346153 0.783452 5.51612
 0.296005 0.70231 5.64741
 0.371748 0.601501 5.70711
 0.864929 0.484442 5.1312
 0.792649 0.571252 5.21302
 0.757935 0.45399 5.46843
 0.783452 0.516122 5.34615
 0.843911 0.375039 5.38361
 0.70231 0.647412 5.296
 0.601501 0.707107 5.37175
 0.571252 0.213023 5.79265
 0.615642 0.0810863 5.78384
 0.45399 0.46843 5.75794
 0.516122 0.346153 5.78345
 0.758652 0.237086 5.60683
 0.647412 0.296005 5.70231
 0.707107 0.371748 5.6015
 0.564254 0.646578 5.51338
 0.646578 0.513375 5.56425
 0.513375 0.564254 5.64658
 0.915043 0.403355 5
 0.924305 0.358229 5.13166
 0.987688 0.0822425 5.13307
 0.966393 0.220117 5.13279
 0.990439 0.137952 5
 0.916244 0.301259 5.26408
 0.891007 0.238677 5.38619
 0.864929 -0.484442 5.1312
 0.924305 -0.358229 5.13166
 0.915043 -0.403355 5
 0.891007 -0.238677 5.38619
 0.916244 -0.301259 5.26408
 0.843911 -0.375039 5.38361
 0.990439 -0.137952 5
 0.966393 -0.220117 5.13279
 0.987688 -0.0822425 5.13307
 0.702907 0 5.71128
 0.615642 -0.0810863 5.78384
 0.840178 0.156434 5.51926
 0.780204 0.0811419 5.62024
 0.758652 -0.237086 5.60683
 0.780204 -0.0811419 5.62024
 0.840178 -0.156434 5.51926
 0.963861 0 5.2664
 0.912982 -0.0823236 5.39961
 0.912982 0.0823236 5.39961
 0.864929 0.484442 4.8688
 0.924305 0.358229 4.86834
 0.891007 0.238677 4.61381
 0.916244 0.301259 4.73592
 0.843911 0.375039 4.61639
 0.966393 0.220117 4.86721
 0.987688 0.0822425 4.86693
 0.615642 -0.0810863 4.21616
 0.702907 0 4.28872
 0.615642 0.0810863 4.21616
 0.840178 -0.156434 4.48074
 0.780204 -0.0811419 4.37976
 0.758652 -0.237086 4.39317
 0.758652 0.237086 4.39317
 0.780204 0.0811419 4.37976
 0.840178 0.156434 4.48074
 0.924305 -0.358229 4.86834
 0.864929 -0.484442 4.8688
 0.987688 -0.0822425 4.86693
 0.966393 -0.220117 4.86721
 0.843911 -0.375039 4.61639
 0.916244 -0.301259 4.73592
 0.891007 -0.238677 4.61381
 0.912982 0.0823236 4.60039
 0.912982 -0.0823236 4.60039
 0.963861 0 4.7336
 0.0810863 0.783843 4.38436
 0.213023 0.792649 4.42875
 0.371748 0.601501 4.29289
 0.296005 0.70231 4.35259
 0.237086 0.606825 4.24135
 0.346153 0.783452 4.48388
 0.46843 0.757935 4.54601
 0.571252 0.213023 4.20735
 0.484442 0.1312 4.13507
 0.707107 0.371748 4.3985
 0.647412 0.296005 4.29769
 0.375039 0.383614 4.15609
 0.516122 0.346153 4.21655
 0.45399 0.46843 4.24206
 0.792649 0.571252 4.78698
 0.601501 0.707107 4.62825
 0.70231 0.647412 4.704
 0.783452 0.516122 4.65385
 0.757935 0.45399 4.53157
 0.513375 0.564254 4.35342
 0.646578 0.513375 4.43575
 0.564254 0.646578 4.48662
 -0.0810863 0.783843 4.38436
 0 0.711282 4.29709
 -0.156434 0.519258 4.15982
 -0.0811419 0.62024 4.2198
 -0.237086 0.606825 4.24135
 0.0811419 0.62024 4.2198
 0.156434 0.519258 4.15982
 -0.403355 0 4.08496
 -0.358229 0.131655 4.0757
 -0.484442 0.1312 4.13507
 -0.0822425 0.133071 4.01231
 -0.220117 0.132792 4.03361
 -0.137952 0 4.00956
 -0.375039 0.383614 4.15609
 -0.301259 0.264083 4.08376
 -0.238677 0.386187 4.10899
 0.358229 0.131655 4.0757
 0.403355 0 4.08496
 0.238677 0.386187 4.10899
 0.301259 0.264083 4.08376
 0.137952 0 4.00956
 0.220117 0.132792 4.03361
 0.0822425 0.133071 4.01231
 -0.0823236 0.399607 4.08702
 0 0.266405 4.03614
 0.0823236 0.399607 4.08702
 -0.484442 -0.1312 4.13507
 -0.358229 -0.131655 4.0757
 -0.238677 -0.386187 4.10899
 -0.301259 -0.264083 4.08376
 -0.375039 -0.383614 4.15609
 -0.220117 -0.132792 4.03361
 -0.0822425 -0.133071 4.01231
 0.0810863 -0.783843 4.38436
 0 -0.711282 4.29709
 -0.0810863 -0.783843 4.38436
 0.156434 -0.519258 4.15982
 0.0811419 -0.62024 4.2198
 0.237086 -0.606825 4.24135
 -0.237086 -0.606825 4.24135
 -0.0811419 -0.62024 4.2198
 -0.156434 -0.519258 4.15982
 0.358229 -0.131655 4.0757
 0.484442 -0.1312 4.13507
 0.0822425 -0.133071 4.01231
 0.220117 -0.132792 4.03361
 0.375039 -0.383614 4.15609
 0.301259 -0.264083 4.08376
 0.238677 -0.386187 4.10899
 -0.0823236 -0.399607 4.08702
 0.0823236 -0.399607 4.08702
 0 -0.266405 4.03614
 0.1312 -0.864929 4.51556
 0.213023 -0.792649 4.42875
 0.46843 -0.757935 4.54601
 0.346153 -0.783452 4.48388
 0.383614 -0.843911 4.62496
 0.296005 -0.70231 4.35259
 0.371748 -0.601501 4.29289
 0.792649 -0.571252 4.78698
 0.783843 -0.615642 4.91891
 0.757935 -0.45399 4.53157
 0.783452 -0.516122 4.65385
 0.606825 -0.758652 4.76291
 0.70231 -0.647412 4.704
 0.601501 -0.707107 4.62825
 0.571252 -0.213023 4.20735
 0.45399 -0.46843 4.24206
 0.516122 -0.346153 4.21655
 0.647412 -0.296005 4.29769
 0.707107 -0.371748 4.3985
 0.564254 -0.646578 4.48662
 0.646578 -0.513375 4.43575
 0.513375 -0.564254 4.35342
 0 -0.915043 4.59664
 0.131655 -0.924305 4.64177
 0.133071 -0.987688 4.91776
 0.132792 -0.966393 4.77988
 0 -0.990439 4.86205
 0.264083 -0.916244 4.69874
 0.386187 -0.891007 4.76132
 0.1312 -0.864929 5.48444
 0.131655 -0.924305 5.35823
 0 -0.915043 5.40336
 0.386187 -0.891007 5.23868
 0.264083 -0.916244 5.30126
 0.383614 -0.843911 5.37504
 0 -0.990439 5.13795
 0.132792 -0.966393 5.22012
 0.133071 -0.987688 5.08224
 0.711282 -0.702907 5
 0.783843 -0.615642 5.08109
 0.519258 -0.840178 4.84357
 0.62024 -0.780204 4.91886
 0.606825 -0.758652 5.23709
 0.62024 -0.780204 5.08114
 0.519258 -0.840178 5.15643
 0.266405 -0.963861 5
 0.399607 -0.912982 5.08232
 0.399607 -0.912982 4.91768
 -0.1312 -0.864929 4.51556
 -0.131655 -0.924305 4.64177
 -0.386187 -0.891007 4.76132
 -0.264083 -0.916244 4.69874
 -0.383614 -0.843911 4.62496
 -0.132792 -0.966393 4.77988
 -0.133071 -0.987688 4.91776
 -0.783843 -0.615642 5.08109
 -0.711282 -0.702907 5
 -0.783843 -0.615642 4.91891
 -0.519258 -0.840178 5.15643
 -0.62024 -0.780204 5.08114
 -0.606825 -0.758652 5.23709
 -0.606825 -0.758652 4.76291
 -0.62024 -0.780204 4.91886
 -0.519258 -0.840178 4.84357
 -0.131655 -0.924305 5.35823
 -0.1312 -0.864929 5.48444
 -0.133071 -0.987688 5.08224
 -0.132792 -0.966393 5.22012
 -0.383614 -0.843911 5.37504
 -0.264083 -0.916244 5.30126
 -0.386187 -0.891007 5.23868
 -0.399607 -0.912982 4.91768
 -0.399607 -0.912982 5.08232
 -0.266405 -0.963861 5
 -0.864929 -0.484442 5.1312
 -0.792649 -0.571252 5.21302
 -0.757935 -0.45399 5.46843
 -0.783452 -0.516122 5.34615
 -0.843911 -0.375039 5.38361
 -0.70231 -0.647412 5.296
 -0.601501 -0.707107 5.37175
 -0.484442 -0.1312 5.86493
 -0.571252 -0.213023 5.79265
 -0.615642 -0.0810863 5.78384
 -0.45399 -0.46843 5.75794
 -0.516122 -0.346153 5.78345
 -0.375039 -0.383614 5.84391
 -0.758652 -0.237086 5.60683
 -0.647412 -0.296005 5.70231
 -0.707107 -0.371748 5.6015
 -0.213023 -0.792649 5.57125
 -0.0810863 -0.783843 5.61564
 -0.46843 -0.757935 5.45399
 -0.346153 -0.783452 5.51612
 -0.237086 -0.606825 5.75865
 -0.296005 -0.70231 5.64741
 -0.371748 -0.601501 5.70711
 -0.646578 -0.513375 5.56425
 -0.513375 -0.564254 5.64658
 -0.564254 -0.646578 5.51338
 -0.358229 -0.131655 5.9243
 -0.0822425 -0.133071 5.98769
 -0.220117 -0.132792 5.96639
 -0.301259 -0.264083 5.91624
 -0.238677 -0.386187 5.89101
 0.484442 -0.1312 5.86493
 0.358229 -0.131655 5.9243
 0.238677 -0.386187 5.89101
 0.301259 -0.264083 5.91624
 0.375039 -0.383614 5.84391
 0.220117 -0.132792 5.96639
 0.0822425 -0.133071 5.98769
 0 -0.711282 5.70291
 0.0810863 -0.783843 5.61564
 -0.156434 -0.519258 5.84018
 -0.0811419 -0.62024 5.7802
 0.237086 -0.606825 5.75865
 0.0811419 -0.62024 5.7802
 0.156434 -0.519258 5.84018
 0 -0.266405 5.96386
 0.0823236 -0.399607 5.91298
 -0.0823236 -0.399607 5.91298
 0.213023 -0.792649 5.57125
 0.371748 -0.601501 5.70711
 0.296005 -0.70231 5.64741
 0.346153 -0.783452 5.51612
 0.46843 -0.757935 5.45399
 0.571252 -0.213023 5.79265
 0.707107 -0.371748 5.6015
 0.647412 -0.296005 5.70231
 0.516122 -0.346153 5.78345
 0.45399 -0.46843 5.75794
 0.792649 -0.571252 5.21302
 0.601501 -0.707107 5.37175
 0.70231 -0.647412 5.296
 0.783452 -0.516122 5.34615
 0.757935 -0.45399 5.46843
 0.513375 -0.564254 5.64658
 0.646578 -0.513375 5.56425
 0.564254 -0.646578 5.51338
 -0.924305 0.358229 5.13166
 -0.915043 0.403355 5
 -0.891007 0.238677 5.38619
 -0.916244 0.301259 5.26408
 -0.990439 0.137952 5
 -0.966393 0.220117 5.13279
 -0.987688 0.0822425 5.13307
 -0.702907 0 5.71128
 -0.840178 -0.156434 5.51926
 -0.780204 -0.0811419 5.62024
 -0.780204 0.0811419 5.62024
 -0.840178 0.156434 5.51926
 -0.915043 -0.403355 5
 -0.924305 -0.358229 5.13166
 -0.987688 -0.0822425 5.13307
 -0.966393 -0.220117 5.13279
 -0.990439 -0.137952 5
 -0.916244 -0.301259 5.26408
 -0.891007 -0.238677 5.38619
 -0.912982 0.0823236 5.39961
 -0.912982 -0.0823236 5.39961
 -0.963861 0 5.2664
 -0.924305 0.358229 4.86834
 -0.864929 0.484442 4.8688
 -0.987688 0.0822425 4.86693
 -0.966393 0.220117 4.86721
 -0.843911 0.375039 4.61639
 -0.916244 0.301259 4.73592
 -0.891007 0.238677 4.61381
 -0.864929 -0.484442 4.8688
 -0.924305 -0.358229 4.86834
 -0.891007 -0.238677 4.61381
 -0.916244 -0.301259 4.73592
 -0.843911 -0.375039 4.61639
 -0.966393 -0.220117 4.86721
 -0.987688 -0.0822425 4.86693
 -0.615642 0.0810863 4.21616
 -0.702907 0 4.28872
 -0.615642 -0.0810863 4.21616
 -0.840178 0.156434 4.48074
 -0.780204 0.0811419 4.37976
 -0.758652 0.237086 4.39317
 -0.758652 -0.237086 4.39317
 -0.780204 -0.0811419 4.37976
 -0.840178 -0.156434 4.48074
 -0.963861 0 4.7336
 -0.912982 -0.0823236 4.60039
 -0.912982 0.0823236 4.60039
 -0.792649 0.571252 4.78698
 -0.757935 0.45399 4.53157
 -0.783452 0.516122 4.65385
 -0.70231 0.647412 4.704
 -0.601501 0.707107 4.62825
 -0.571252 0.213023 4.20735
 -0.45399 0.46843 4.24206
 -0.516122 0.346153 4.21655
 -0.647412 0.296005 4.29769
 -0.707107 0.371748 4.3985
 -0.213023 0.792649 4.42875
 -0.46843 0.757935 4.54601
 -0.346153 0.783452 4.48388
 -0.296005 0.70231 4.35259
 -0.371748 0.601501 4.29289
 -0.646578 0.513375 4.43575
 -0.513375 0.564254 4.35342
 -0.564254 0.646578 4.48662
 -0.213023 -0.792649 4.42875
 -0.371748 -0.601501 4.29289
 -0.296005 -0.70231 4.35259
 -0.346153 -0.783452 4.48388
 -0.46843 -0.757935 4.54601
 -0.571252 -0.213023 4.20735
 -0.707107 -0.371748 4.3985
 -0.647412 -0.296005 4.29769
 -0.516122 -0.346153 4.21655
 -0.45399 -0.46843 4.24206
 -0.792649 -0.571252 4.78698
 -0.601501 -0.707107 4.62825
 -0.70231 -0.647412 4.704
 -0.783452 -0.516122 4.65385
 -0.757935 -0.45399 4.53157
 -0.513375 -0.564254 4.35342
 -0.646578 -0.513375 4.43575
 -0.564254 -0.646578 4.48662
LINES 642 1926
 2 0 1
 2 0 2
 2 0 3
 2 0 4
 2 0 5
 2 0 6
 2 0 7
 2 0 8
 2 0 9
 2 0 10
 2 0 11
 2 0 12
 2 0 13
 2 0 14
 2 0 15
 2 0 16
 2 0 17
 2 0 18
 2 0 19
 2 0 20
 2 0 21
 2 0 22
 2 0 23
 2 0 24
 2 0 25
 2 0 26
 2 0 27
 2 0 28
 2 0 29
 2 0 30
 2 0 31
 2 0 32
 2 0 33
 2 0 34
 2 0 35
 2 0 36
 2 0 37
 2 0 38
 2 0 39
 2 0 40
 2 0 41
 2 0 42
 2 0 43
 2 0 44
 2 0 45
 2 0 46
 2 0 47
 2 0 48
 2 0 49
 2 0 50
 2 0 51
 2 0 52
 2 0 53
 2 0 54
 2 0 55
 2 0 56
 2 0 57
 2 0 58
 2 0 59
 2 0 60
 2 0 61
 2 0 62
 2 0 63
 2 0 64
 2 0 65
 2 0 66
 2 0 67
 2 0 68
 2 0 69
 2 0 70
 2 0 71
 2 0 72
 2 0 73
 2 0 74
 2 0 75
 2 0 76
 2 0 77
 2 0 78
 2 0 79
 2 0 80
 2 0 81
 2 0 82
 2 0 83
 2 0 84
 2 0 85
 2 0 86
 2 0 87
 2 0 88
 2 0 89
 2 0 90
 2 0 91
 2 0 92
 2 0 93
 2 0 94
 2 0 95
 2 0 96
 2 0 97
 2 0 98
 2 0 99
 2 0 100
 2 0 101
 2 0 102
 2 0 103
 2 0 104
 2 0 105
 2 0 106
 2 0 107
 2 0 108
 2 0 109
 2 0 110
 2 0 111
 2 0 112
 2 0 113
 2 0 114
 2 0 115
 2 0 116
 2 0 117
 2 0 118
 2 0 119
 2 0 120
 2 0 121
 2 0 122
 2 0 123
 2 0 124
 2 0 125
 2 0 126
 2 0 127
 2 0 128
 2 0 129
 2 0 130
 2 0 131
 2 0 132
 2 0 133
 2 0 134
 2 0 135
 2 0 136
 2 0 137
 2 0 138
 2 0 139
 2 0 140
 2 0 141
 2 0 142
 2 0 143
 2 0 144
 2 0 145
 2 0 146
 2 0 147
 2 0 148
 2 0 149
 2 0 150
 2 0 151
 2 0 152
 2 0 153
 2 0 154
 2 0 155
 2 0 156
 2 0 157
 2 0 158
 2 0 159
 2 0 160
 2 0 161
 2 0 162
 2 0 163
 2 0 164
 2 0 165
 2 0 166
 2 0 167
 2 0 168
 2 0 169
 2 0 170
 2 0 171
 2 0 172
 2 0 173
 2 0 174
 2 0 175
 2 0 176
 2 0 177
 2 0 178
 2 0 179
 2 0 180
 2 0 181
 2 0 182
 2 0 183
 2 0 184
 2 0 185
 2 0 186
 2 0 187
 2 0 188
 2 0 189
 2 0 190
 2 0 191
 2 0 192
 2 0 193
 2 0 194
 2 0 195
 2 0 196
 2 0 197
 2 0 198
 2 0 199
 2 0 200
 2 0 201
 2 0 202
 2 0 203
 2 0 204
 2 0 205
 2 0 206
 2 0 207
 2 0 208
 2 0 209
 2 0 210
 2 0 211
 2 0 212
 2 0 213
 2 0 214
 2 0 215
 2 0 216
 2 0 217
 2 0 218
 2 0 219
 2 0 220
 2 0 221
 2 0 222
 2 0 223
 2 0 224
 2 0 225
 2 0 226
 2 0 227
 2 0 228
 2 0 229
 2 0 230
 2 0 231
 2 0 232
 2 0 233
 2 0 234
 2 0 235
 2 0 236
 2 0 237
 2 0 238
 2 0 239
 2 0 240
 2 0 241
 2 0 242
 2 0 243
 2 0 244
 2 0 245
 2 0 246
 2 0 247
 2 0 248
 2 0 249
 2 0 250
 2 0 251
 2 0 252
 2 0 253
 2 0 254
 2 0 255
 2 0 256
 2 0 257
 2 0 258
 2 0 259
 2 0 260
 2 0 261
 2 0 262
 2 0 263
 2 0 264
 2 0 265
 2 0 266
 2 0 267
 2 0 268
 2 0 269
 2 0 270
 2 0 271
 2 0 272
 2 0 273
 2 0 274
 2 0 275
 2 0 276
 2 0 277
 2 0 278
 2 0 279
 2 0 280
 2 0 281
 2 0 282
 2 0 283
 2 0 284
 2 0 285
 2 0 286
 2 0 287
 2 0 288
 2 0 289
 2 0 290
 2 0 291
 2 0 292
 2 0 293
 2 0 294
 2 0 295
 2 0 296
 2 0 297
 2 0 298
 2 0 299
 2 0 300
 2 0 301
 2 0 302
 2 0 303
 2 0 304
 2 0 305
 2 0 306
 2 0 307
 2 0 308
 2 0 309
 2 0 310
 2 0 311
 2 0 312
 2 0 313
 2 0 314
 2 0 315
 2 0 316
 2 0 317
 2 0 318
 2 0 319
 2 0 320
 2 0 321
 2 0 322
 2 0 323
 2 0 324
 2 0 325
 2 0 326
 2 0 327
 2 0 328
 2 0 329
 2 0 330
 2 0 331
 2 0 332
 2 0 333
 2 0 334
 2 0 335
 2 0 336
 2 0 337
 2 0 338
 2 0 339
 2 0 340
 2 0 341
 2 0 342
 2 0 343
 2 0 344
 2 0 345
 2 0 346
 2 0 347
 2 0 348
 2 0 349
 2 0 350
 2 0 351
 2 0 352
 2 0 353
 2 0 354
 2 0 355
 2 0 356
 2 0 357
 2 0 358
 2 0 359
 2 0 360
 2 0 361
 2 0 362
 2 0 363
 2 0 364
 2 0 365
 2 0 366
 2 0 367
 2 0 368
 2 0 369
 2 0 370
 2 0 371
 2 0 372
 2 0 373
 2 0 374
 2 0 375
 2 0 376
 2 0 377
 2 0 378
 2 0 379
 2 0 380
 2 0 381
 2 0 382
 2 0 383
 2 0 384
 2 0 385
 2 0 386
 2 0 387
 2 0 388
 2 0 389
 2 0 390
 2 0 391
 2 0 392
 2 0 393
 2 0 394
 2 0 395
 2 0 396
 2 0 397
 2 0 398
 2 0 399
 2 0 400
 2 0 401
 2 0 402
 2 0 403
 2 0 404
 2 0 405
 2 0 406
 2 0 407
 2 0 408
 2 0 409
 2 0 410
 2 0 411
 2 0 412
 2 0 413
 2 0 414
 2 0 415
 2 0 416
 2 0 417
 2 0 418
 2 0 419
 2 0 420
 2 0 421
 2 0 422
 2 0 423
 2 0 424
 2 0 425
 2 0 426
 2 0 427
 2 0 428
 2 0 429
 2 0 430
 2 0 431
 2 0 432
 2 0 433
 2 0 434
 2 0 435
 2 0 436
 2 0 437
 2 0 438
 2 0 439
 2 0 440
 2 0 441
 2 0 442
 2 0 443
 2 0 444
 2 0 445
 2 0 446
 2 0 447
 2 0 448
 2 0 449
 2 0 450
 2 0 451
 2 0 452
 2 0 453
 2 0 454
 2 0 455
 2 0 456
 2 0 457
 2 0 458
 2 0 459
 2 0 460
 2 0 461
 2 0 462
 2 0 463
 2 0 464
 2 0 465
 2 0 466
 2 0 467
 2 0 468
 2 0 469
 2 0 470
 2 0 471
 2 0 472
 2 0 473
 2 0 474
 2 0 475
 2 0 476
 2 0 477
 2 0 478
 2 0 479
 2 0 480
 2 0 481
 2 0 482
 2 0 483
 2 0 484
 2 0 485
 2 0 486
 2 0 487
 2 0 488
 2 0 489
 2 0 490
 2 0 491
 2 0 492
 2 0 493
 2 0 494
 2 0 495
 2 0 496
 2 0 497
 2 0 498
 2 0 499
 2 0 500
 2 0 501
 2 0 502
 2 0 503
 2 0 504
 2 0 505
 2 0 506
 2 0 507
 2 0 508
 2 0 509
 2 0 510
 2 0 511
 2 0 512
 2 0 513
 2 0 514
 2 0 515
 2 0 516
 2 0 517
 2 0 518
 2 0 519
 2 0 520
 2 0 521
 2 0 522
 2 0 523
 2 0 524
 2 0 525
 2 0 526
 2 0 527
 2 0 528
 2 0 529
 2 0 530
 2 0 531
 2 0 532
 2 0 533
 2 0 534
 2 0 535
 2 0 536
 2 0 537
 2 0 538
 2 0 539
 2 0 540
 2 0 541
 2 0 542
 2 0 543
 2 0 544
 2 0 545
 2 0 546
 2 0 547
 2 0 548
 2 0 549
 2 0 550
 2 0 551
 2 0 552
 2 0 553
 2 0 554
 2 0 555
 2 0 556
 2 0 557
 2 0 558
 2 0 559
 2 0 560
 2 0 561
 2 0 562
 2 0 563
 2 0 564
 2 0 565
 2 0 566
 2 0 567
 2 0 568
 2 0 569
 2 0 570
 2 0 571
 2 0 572
 2 0 573
 2 0 574
 2 0 575
 2 0 576
 2 0 577
 2 0 578
 2 0 579
 2 0 580
 2 0 581
 2 0 582
 2 0 583
 2 0 584
 2 0 585
 2 0 586
 2 0 587
 2 0 588
 2 0 589
 2 0 590
 2 0 591
 2 0 592
 2 0 593
 2 0 594
 2 0 595
 2 0 596
 2 0 597
 2 0 598
 2 0 599
 2 0 600
 2 0 601
 2 0 602
 2 0 603
 2 0 604
 2 0 605
 2 0 606
 2 0 607
 2 0 608
 2 0 609
 2 0 610
 2 0 611
 2 0 612
 2 0 613
 2 0 614
 2 0 615
 2 0 616
 2 0 617
 2 0 618
 2 0 619
 2 0 620
 2 0 621
 2 0 622
 2 0 623
 2 0 624
 2 0 625
 2 0 626
 2 0 627
 2 0 628
 2 0 629
 2 0 630
 2 0 631
 2 0 632
 2 0 633
 2 0 634
 2 0 635
 2 0 636
 2 0 637
 2 0 638
 2 0 639
 2 0 640
 2 0 641
 2 0 642
CELL_DATA 642
FIELD FieldData 1
LaunchID 1 642 int
 0
 1
 2
 3
 4
 5
 6
 7
 8
 9
 10
 11
 12
 13
 14
 15
 16
 17
 18
 19
 20
 21
 22
 23
 24
 25
 26
 27
 28
 29
 30
 31
 32
 33
 34
 35
 36
 37
 38
 39
 40
 41
 42
 43
 44
 45
 46
 47
 48
 49
 50
 51
 52
 53
 54
 55
 56
 57
 58
 59
 60
 61
 62
 63
 64
 65
 66
 67
 68
 69
 70
 71
 72
 73
 74
 75
 76
 77
 78
 79
 80
 81
 82
 83
 84
 85
 86
 87
 88
 89
 90
 91
 92
 93
 94
 95
 96
 97
 98
 99
 100
 101
 102
 103
 104
 105
 106
 107
 108
 109
 110
 111
 112
 113
 114
 115
 116
 117
 118
 119
 120
 121
 122
 123
 124
 125
 126
 127
 128
 129
 130
 131
 132
 133
 134
 135
 136
 137
 138
 139
 140
 141
 142
 143
 144
 145
 146
 147
 148
 149
 150
 151
 152
 153
 154
 155
 156
 157
 158
 159
 160
 161
 162
 163
 164
 165
 166
 167
 168
 169
 170
 171
 172
 173
 174
 175
 176
 177
 178
 179
 180
 181
 182
 183
 184
 185
 186
 187
 188
 189
 190
 191
 192
 193
 194
 195
 196
 197
 198
 199
 200
 201
 202
 203
 204
 205
 206
 207
 208
 209
 210
 211
 212
 213
 214
 215
 216
 217
 218
 219
 220
 221
 222
 223
 224
 225
 226
 227
 228
 229
 230
 231
 232
 233
 234
 235
 236
 237
 238
 239
 240
 241
 242
 243
 244
 245
 246
 247
 248
 249
 250
 251
 252
 253
 254
 255
 256
 257
 258
 259
 260
 261
 262
 263
 264
 265
 266
 267
 268
 269
 270
 271
 272
 273
 274
 275
 276
 277
 278
 279
 280
 281
 282
 283
 284
 285
 286
 287
 288
 289
 290
 291
 292
 293
 294
 295
 296
 297
 298
 299
 300
 301
 302
 303
 304
 305
 306
 307
 308
 309
 310
 311
 312
 313
 314
 315
 316
 317
 318
 319
 320
 321
 322
 323
 324
 325
 326
 327
 328
 329
 330
 331
 332
 333
 334
 335
 336
 337
 338
 339
 340
 341
 342
 343
 344
 345
 346
 347
 348
 349
 350
 351
 352
 353
 354
 355
 356
 357
 358
 359
 360
 361
 362
 363
 364
 365
 366
 367
 368
 369
 370
 371
 372
 373
 374
 375
 376
 377
 378
 379
 380
 381
 382
 383
 384
 385
 386
 387
 388
 389
 390
 391
 392
 393
 394
 395
 396
 397
 398
 399
 400
 401
 402
 403
 404
 405
 406
 407
 408
 409
 410
 411
 412
 413
 414
 415
 416
 417
 418
 419
 420
 421
 422
 423
 424
 425
 426
 427
 428
 429
 430
 431
 432
 433
 434
 435
 436
 437
 438
 439
 440
 441
 442
 443
 444
 445
 446
 447
 448
 449
 450
 451
 452
 453
 454
 455
 456
 457
 458
 459
 460
 461
 462
 463
 464
 465
 466
 467
 468
 469
 470
 471
 472
 473
 474
 475
 476
 477
 478
 479
 480
 481
 482
 483
 484
 485
 486
 487
 488
 489
 490
 491
 492
 493
 494
 495
 496
 497
 498
 499
 500
 501
 502
 503
 504
 505
 506
 507
 508
 509
 510
 511
 512
 513
 514
 515
 516
 517
 518
 519
 520
 521
 522
 523
 524
 525
 526
 527
 528
 529
 530
 531
 532
 533
 534
 535
 536
 537
 538
 539
 540
 541
 542
 543
 544
 545
 546
 547
 548
 549
 550
 551
 552
 553
 554
 555
 556
 557
 558
 559
 560
 561
 562
 563
 564
 565
 566
 567
 568
 569
 570
 571
 572
 573
 574
 575
 576
 577
 578
 579
 580
 581
 582
 583
 584
 585
 586
 587
 588
 589
 590
 591
 592
 593
 594
 595
 596
 597
 598
 599
 600
 601
 602
 603
 604
 605
 606
 607
 608
 609
 610
 611
 612
 613
 614
 615
 616
 617
 618
 619
 620
 621
 622
 623
 624
 625
 626
 627
 628
 629
 630
 631
 632
 633
 634
 635
 636
 637
 638
 639
 640
 641
