# vtk DataFile Version 2.0
Ray Path Visualization
ASCII
DATASET POLYDATA

POINTS 764 float
 0 0 5
 0 3.06525 3.10557
 0 0 5
 0 -3.06525 3.10557
 0 0 5
 -3.73607 6.04508 2.69098
 0 0 5
 -4.14058 6.69959 2.44098
 0 0 5
 -3.08156 4.98607 3.09549
 0 0 5
 3.08156 4.98607 3.09549
 0 0 5
 3.73607 6.04508 2.69098
 0 0 5
 4.14058 6.69959 2.44098
 0 0 5
 3.02254 1.15451 3.13197
 0 0 5
 3.02254 -1.15451 3.13197
 0 0 5
 0 0 3
 0 0 5
 3.08156 -4.98607 3.09549
 0 0 5
 4.14058 -6.69959 2.44098
 0 0 5
 3.73607 -6.04508 2.69098
 0 0 5
 -4.14058 -6.69959 2.44098
 0 0 5
 -3.73607 -6.04508 2.69098
 0 0 5
 -3.08156 -4.98607 3.09549
 0 0 5
 -3.02254 -1.15451 3.13197
 0 0 5
 -3.02254 1.15451 3.13197
 0 0 5
 -9.53782 9.42552 2.81783
 0 0 5
 -8.55788 8.45712 3.04203
 0 0 5
 -9.04495 8.93845 2.9306
 0 0 5
 -7.57794 7.48872 3.26623
 0 0 5
 -8.06501 7.97005 3.1548
 0 0 5
 -8.55208 8.45138 3.04336
 0 0 5
 -7.08508 7.00166 3.379
 0 0 5
 -6.10514 6.03326 3.6032
 0 0 5
 0 6.07768 3.27346
 0 0 5
 0 7.00301 3.01059
 0 0 5
 0 7.92833 2.74773
 0 0 5
 0 8.85366 2.48486
 0 0 5
 -2.54271 9.19959 3.42852
 0 0 5
 -2.47361 8.94959 3.47123
 0 0 5
 -1.18987 3.94959 3.01351
 0 0 5
 1.18987 3.94959 3.01351
 0 0 5
 2.47361 8.94959 3.47123
 0 0 5
 2.54271 9.19959 3.42852
 0 0 5
 6.10514 6.03326 3.6032
 0 0 5
 7.08508 7.00166 3.379
 0 0 5
 7.57794 7.48872 3.26623
 0 0 5
 8.06501 7.97005 3.1548
 0 0 5
 8.55208 8.45138 3.04336
 0 0 5
 8.55788 8.45712 3.04203
 0 0 5
 9.04495 8.93845 2.9306
 0 0 5
 6.03649 3.03612 3.18142
 0 0 5
 6.78069 3.41042 2.95722
 0 0 5
 7.15499 3.59868 2.84445
 0 0 5
 7.89918 3.97298 2.62025
 0 0 5
 8.64338 4.34728 2.39605
 0 0 5
 6.08156 1.03885 3.3191
 0 0 5
 6.98607 1.19336 3.0691
 0 0 5
 7.89058 1.34787 2.8191
 0 0 5
 8.79508 1.50238 2.5691
 0 0 5
 8.94959 1.52877 2.52639
 0 0 5
 3.06525 0 3.10557
 0 0 5
 6.08156 -1.03885 3.3191
 0 0 5
 6.98607 -1.19336 3.0691
 0 0 5
 7.89058 -1.34787 2.8191
 0 0 5
 8.94959 -1.52877 2.52639
 0 0 5
 8.79508 -1.50238 2.5691
 0 0 5
 6.03649 -3.03612 3.18142
 0 0 5
 7.15499 -3.59868 2.84445
 0 0 5
 6.78069 -3.41042 2.95722
 0 0 5
 7.89918 -3.97298 2.62025
 0 0 5
 8.64338 -4.34728 2.39605
 0 0 5
 3.21976 2.75 3.01008
 0 0 5
 1.18987 -3.94959 3.01351
 0 0 5
 3.21976 -2.75 3.01008
 0 0 5
 6.10514 -6.03326 3.6032
 0 0 5
 7.08508 -7.00166 3.379
 0 0 5
 8.55208 -8.45138 3.04336
 0 0 5
 8.06501 -7.97005 3.1548
 0 0 5
 7.57794 -7.48872 3.26623
 0 0 5
 9.53201 -9.41978 2.81916
 0 0 5
 9.04495 -8.93845 2.9306
 0 0 5
 8.55788 -8.45712 3.04203
 0 0 5
 0 -8.85366 2.48486
 0 0 5
 0 -7.92833 2.74773
 0 0 5
 0 -7.00301 3.01059
 0 0 5
 0 -6.07768 3.27346
 0 0 5
 2.47361 -8.94959 3.47123
 0 0 5
 2.79271 -10.1041 3.27401
 0 0 5
 2.54271 -9.19959 3.42852
 0 0 5
 -1.18987 -3.94959 3.01351
 0 0 5
 -2.79271 -10.1041 3.27401
 0 0 5
 -2.54271 -9.19959 3.42852
 0 0 5
 -2.47361 -8.94959 3.47123
 0 0 5
 -10.0249 -9.90685 2.7064
 0 0 5
 -9.53782 -9.42552 2.81783
 0 0 5
 -9.53201 -9.41978 2.81916
 0 0 5
 -9.04495 -8.93845 2.9306
 0 0 5
 -8.55788 -8.45712 3.04203
 0 0 5
 -8.55208 -8.45138 3.04336
 0 0 5
 -8.06501 -7.97005 3.1548
 0 0 5
 -7.57794 -7.48872 3.26623
 0 0 5
 -7.08508 -7.00166 3.379
 0 0 5
 -6.10514 -6.03326 3.6032
 0 0 5
 -8.79508 1.50238 2.5691
 0 0 5
 -8.94959 1.52877 2.52639
 0 0 5
 -7.89058 1.34787 2.8191
 0 0 5
 -6.98607 1.19336 3.0691
 0 0 5
 -6.08156 1.03885 3.3191
 0 0 5
 -8.64338 4.34728 2.39605
 0 0 5
 -7.89918 3.97298 2.62025
 0 0 5
 -6.78069 3.41042 2.95722
 0 0 5
 -7.15499 3.59868 2.84445
 0 0 5
 -6.03649 3.03612 3.18142
 0 0 5
 -8.64338 -4.34728 2.39605
 0 0 5
 -7.89918 -3.97298 2.62025
 0 0 5
 -7.15499 -3.59868 2.84445
 0 0 5
 -6.78069 -3.41042 2.95722
 0 0 5
 -6.03649 -3.03612 3.18142
 0 0 5
 -8.94959 -1.52877 2.52639
 0 0 5
 -8.79508 -1.50238 2.5691
 0 0 5
 -7.89058 -1.34787 2.8191
 0 0 5
 -6.98607 -1.19336 3.0691
 0 0 5
 -6.08156 -1.03885 3.3191
 0 0 5
 -3.06525 0 3.10557
 0 0 5
 -3.21976 2.75 3.01008
 0 0 5
 -3.21976 -2.75 3.01008
 0 0 5
 -10.1318 7.95763 3.9519
 0 0 5
 -5.70666 9.23357 3.28078
 0 0 5
 -5.00076 8.0914 3.49344
 0 0 5
 -5.43703 8.7973 3.36201
 0 0 5
 -6.54835 8.18674 2.44156
 0 0 5
 -7.00872 8.7623 2.2617
 0 0 5
 -5.71975 7.15082 2.7653
 0 0 5
 -6.18011 7.72637 2.58543
 0 0 5
 -4.89114 6.1149 3.08903
 0 0 5
 -5.35151 6.69045 2.90917
 0 0 5
 -4.06253 5.07898 3.41277
 0 0 5
 0 4.08739 3.19826
 0 0 5
 0 4.9247 2.82917
 0 0 5
 -0.720107 5.05561 3.04062
 0 0 5
 -0.841797 5.90995 2.70951
 0 0 5
 -0.974401 7.09117 3.38483
 0 0 5
 -1.10273 8.02509 3.17211
 0 0 5
 -1.23106 8.959 2.95939
 0 0 5
 -1.877 4.12922 3.16495
 0 0 5
 -2.20074 4.8414 2.84846
 0 0 5
 -1.75038 6.073 3.00321
 0 0 5
 -1.99234 6.91251 2.72718
 0 0 5
 -2.23431 7.75201 2.45116
 0 0 5
 -3.53367 8.15285 2.81607
 0 0 5
 -3.87777 8.94674 2.60341
 0 0 5
 -2.69634 6.22097 3.33357
 0 0 5
 -3.04044 7.01486 3.12091
 0 0 5
 -3.38453 7.80875 2.90824
 0 0 5
 0.720107 5.05561 3.04062
 0 0 5
 0.841797 5.90995 2.70951
 0 0 5
 2.69634 6.22097 3.33357
 0 0 5
 3.04044 7.01486 3.12091
 0 0 5
 3.38453 7.80875 2.90824
 0 0 5
 3.53367 8.15285 2.81607
 0 0 5
 3.87777 8.94674 2.60341
 0 0 5
 1.75038 6.073 3.00321
 0 0 5
 1.99234 6.91251 2.72718
 0 0 5
 2.23431 7.75201 2.45116
 0 0 5
 1.877 4.12922 3.16495
 0 0 5
 2.20074 4.8414 2.84846
 0 0 5
 0.974401 7.09117 3.38483
 0 0 5
 1.10273 8.02509 3.17211
 0 0 5
 1.23106 8.959 2.95939
 0 0 5
 4.06253 5.07898 3.41277
 0 0 5
 4.89114 6.1149 3.08903
 0 0 5
 5.35151 6.69045 2.90917
 0 0 5
 5.71975 7.15082 2.7653
 0 0 5
 6.18011 7.72637 2.58543
 0 0 5
 6.54835 8.18674 2.44156
 0 0 5
 7.00872 8.7623 2.2617
 0 0 5
 5.00076 8.0914 3.49344
 0 0 5
 5.43703 8.7973 3.36201
 0 0 5
 5.70666 9.23357 3.28078
 0 0 5
 9.05492 5.07161 3.62647
 0 0 5
 4.07642 1.09197 3.23316
 0 0 5
 4.87032 1.30463 2.88907
 0 0 5
 6.073 1.99679 3.24962
 0 0 5
 6.91251 2.27282 3.00766
 0 0 5
 7.75201 2.54884 2.76569
 0 0 5
 8.02804 2.6396 2.68613
 0 0 5
 8.86754 2.91563 2.44417
 0 0 5
 4.12922 1.83505 3.123
 0 0 5
 4.8414 2.15154 2.79926
 0 0 5
 1.98809 0 2.98823
 0 0 5
 9.05492 -5.07161 3.62647
 0 0 5
 4.12922 -1.83505 3.123
 0 0 5
 4.8414 -2.15154 2.79926
 0 0 5
 6.073 -1.99679 3.24962
 0 0 5
 6.91251 -2.27282 3.00766
 0 0 5
 8.02804 -2.6396 2.68613
 0 0 5
 7.75201 -2.54884 2.76569
 0 0 5
 8.86754 -2.91563 2.44417
 0 0 5
 4.07642 -1.09197 3.23316
 0 0 5
 4.87032 -1.30463 2.88907
 0 0 5
 6.08773 0 3.31739
 0 0 5
 7.01675 0 3.06062
 0 0 5
 7.94578 0 2.80384
 0 0 5
 8.87481 0 2.54706
 0 0 5
 0.795315 2.95934 2.86725
 0 0 5
 0.886666 2.10373 3.06071
 0 0 5
 1.9293 3.12167 3.13017
 0 0 5
 1.93929 0.886666 2.89627
 0 0 5
 0.917523 0.938502 2.93539
 0 0 5
 5.91867 4.26551 3.40937
 0 0 5
 6.99977 5.04464 3.11883
 0 0 5
 7.62806 5.49744 2.94997
 0 0 5
 8.08086 5.82377 2.82829
 0 0 5
 8.70915 6.27657 2.65943
 0 0 5
 9.16196 6.6029 2.53774
 0 0 5
 3.23393 3.80171 3.00132
 0 0 5
 4.20747 3.87858 3.22667
 0 0 5
 4.7007 4.33326 3.01878
 0 0 5
 5.15539 4.7524 2.82714
 0 0 5
 5.64863 5.20709 2.61926
 0 0 5
 4.21064 2.77388 3.13961
 0 0 5
 4.82444 3.17824 2.86841
 0 0 5
 3.12167 1.86983 3.0707
 0 0 5
 0 2.01177 3.01191
 0 0 5
 -0.900871 0 2.9563
 0 0 5
 -0.917523 0.938502 2.93539
 0 0 5
 0.900871 0 2.9563
 0 0 5
 -0.917523 -0.938502 2.93539
 0 0 5
 0 -2.01177 3.01191
 0 0 5
 0.917523 -0.938502 2.93539
 0 0 5
 0.795315 -2.95934 2.86725
 0 0 5
 1.9293 -3.12167 3.13017
 0 0 5
 2.20074 -4.8414 2.84846
 0 0 5
 1.877 -4.12922 3.16495
 0 0 5
 0.886666 -2.10373 3.06071
 0 0 5
 5.91867 -4.26551 3.40937
 0 0 5
 6.99977 -5.04464 3.11883
 0 0 5
 8.08086 -5.82377 2.82829
 0 0 5
 7.62806 -5.49744 2.94997
 0 0 5
 9.16196 -6.6029 2.53774
 0 0 5
 8.70915 -6.27657 2.65943
 0 0 5
 3.12167 -1.86983 3.0707
 0 0 5
 4.21064 -2.77388 3.13961
 0 0 5
 4.82444 -3.17824 2.86841
 0 0 5
 4.06253 -5.07898 3.41277
 0 0 5
 5.35151 -6.69045 2.90917
 0 0 5
 4.89114 -6.1149 3.08903
 0 0 5
 6.18011 -7.72637 2.58543
 0 0 5
 5.71975 -7.15082 2.7653
 0 0 5
 7.00872 -8.7623 2.2617
 0 0 5
 6.54835 -8.18674 2.44156
 0 0 5
 4.20747 -3.87858 3.22667
 0 0 5
 5.15539 -4.7524 2.82714
 0 0 5
 4.7007 -4.33326 3.01878
 0 0 5
 5.64863 -5.20709 2.61926
 0 0 5
 3.23393 -3.80171 3.00132
 0 0 5
 1.93929 -0.886666 2.89627
 0 0 5
 0 -4.9247 2.82917
 0 0 5
 0 -4.08739 3.19826
 0 0 5
 0.841797 -5.90995 2.70951
 0 0 5
 0.720107 -5.05561 3.04062
 0 0 5
 1.35939 -9.89292 2.74667
 0 0 5
 1.23106 -8.959 2.95939
 0 0 5
 1.10273 -8.02509 3.17211
 0 0 5
 0.974401 -7.09117 3.38483
 0 0 5
 1.37702 -10.0212 2.71744
 0 0 5
 0 -10.083 3.59561
 0 0 5
 2.23431 -7.75201 2.45116
 0 0 5
 1.99234 -6.91251 2.72718
 0 0 5
 1.75038 -6.073 3.00321
 0 0 5
 3.38453 -7.80875 2.90824
 0 0 5
 3.04044 -7.01486 3.12091
 0 0 5
 2.69634 -6.22097 3.33357
 0 0 5
 4.22187 -9.74063 2.39074
 0 0 5
 3.87777 -8.94674 2.60341
 0 0 5
 3.53367 -8.15285 2.81607
 0 0 5
 5.43703 -8.7973 3.36201
 0 0 5
 5.00076 -8.0914 3.49344
 0 0 5
 6.14293 -9.93947 3.14935
 0 0 5
 5.70666 -9.23357 3.28078
 0 0 5
 6.41256 -10.3757 3.06812
 0 0 5
 8.01737 -10.0851 3.95114
 0 0 5
 -0.841797 -5.90995 2.70951
 0 0 5
 -0.720107 -5.05561 3.04062
 0 0 5
 -4.22187 -9.74063 2.39074
 0 0 5
 -3.87777 -8.94674 2.60341
 0 0 5
 -3.53367 -8.15285 2.81607
 0 0 5
 -3.38453 -7.80875 2.90824
 0 0 5
 -3.04044 -7.01486 3.12091
 0 0 5
 -2.69634 -6.22097 3.33357
 0 0 5
 -2.23431 -7.75201 2.45116
 0 0 5
 -1.99234 -6.91251 2.72718
 0 0 5
 -1.75038 -6.073 3.00321
 0 0 5
 -2.20074 -4.8414 2.84846
 0 0 5
 -1.877 -4.12922 3.16495
 0 0 5
 -1.37702 -10.0212 2.71744
 0 0 5
 -1.35939 -9.89292 2.74667
 0 0 5
 -1.23106 -8.959 2.95939
 0 0 5
 -1.10273 -8.02509 3.17211
 0 0 5
 -0.974401 -7.09117 3.38483
 0 0 5
 -10.1318 -7.95763 3.9519
 0 0 5
 -7.00872 -8.7623 2.2617
 0 0 5
 -6.54835 -8.18674 2.44156
 0 0 5
 -6.18011 -7.72637 2.58543
 0 0 5
 -5.71975 -7.15082 2.7653
 0 0 5
 -5.35151 -6.69045 2.90917
 0 0 5
 -4.89114 -6.1149 3.08903
 0 0 5
 -4.06253 -5.07898 3.41277
 0 0 5
 -8.01737 -10.0851 3.95114
 0 0 5
 -6.41256 -10.3757 3.06812
 0 0 5
 -6.14293 -9.93947 3.14935
 0 0 5
 -5.70666 -9.23357 3.28078
 0 0 5
 -5.43703 -8.7973 3.36201
 0 0 5
 -5.00076 -8.0914 3.49344
 0 0 5
 -10.1112 3.91876 3.55979
 0 0 5
 -9.80302 5.49061 3.51299
 0 0 5
 -10.222 5.7253 3.44943
 0 0 5
 -9.05492 5.07161 3.62647
 0 0 5
 -10.0994 0.840951 3.63931
 0 0 5
 -10.0212 2.28256 3.62298
 0 0 5
 -4.8414 2.15154 2.79926
 0 0 5
 -4.12922 1.83505 3.123
 0 0 5
 -8.86754 2.91563 2.44417
 0 0 5
 -7.75201 2.54884 2.76569
 0 0 5
 -8.02804 2.6396 2.68613
 0 0 5
 -6.91251 2.27282 3.00766
 0 0 5
 -6.073 1.99679 3.24962
 0 0 5
 -4.87032 1.30463 2.88907
 0 0 5
 -4.07642 1.09197 3.23316
 0 0 5
 -10.222 -5.7253 3.44943
 0 0 5
 -9.80302 -5.49061 3.51299
 0 0 5
 -9.05492 -5.07161 3.62647
 0 0 5
 -10.1112 -3.91876 3.55979
 0 0 5
 -4.87032 -1.30463 2.88907
 0 0 5
 -4.07642 -1.09197 3.23316
 0 0 5
 -8.86754 -2.91563 2.44417
 0 0 5
 -8.02804 -2.6396 2.68613
 0 0 5
 -7.75201 -2.54884 2.76569
 0 0 5
 -6.91251 -2.27282 3.00766
 0 0 5
 -6.073 -1.99679 3.24962
 0 0 5
 -4.8414 -2.15154 2.79926
 0 0 5
 -4.12922 -1.83505 3.123
 0 0 5
 -10.0212 -2.28256 3.62298
 0 0 5
 -10.0994 -0.840951 3.63931
 0 0 5
 -1.98809 0 2.98823
 0 0 5
 -9.80384 0 2.29029
 0 0 5
 -8.87481 0 2.54706
 0 0 5
 -7.94578 0 2.80384
 0 0 5
 -7.01675 0 3.06062
 0 0 5
 -6.08773 0 3.31739
 0 0 5
 -9.79025 7.0557 2.36889
 0 0 5
 -8.70915 6.27657 2.65943
 0 0 5
 -9.16196 6.6029 2.53774
 0 0 5
 -7.62806 5.49744 2.94997
 0 0 5
 -8.08086 5.82377 2.82829
 0 0 5
 -6.99977 5.04464 3.11883
 0 0 5
 -5.91867 4.26551 3.40937
 0 0 5
 -3.12167 1.86983 3.0707
 0 0 5
 -4.82444 3.17824 2.86841
 0 0 5
 -4.21064 2.77388 3.13961
 0 0 5
 -5.64863 5.20709 2.61926
 0 0 5
 -4.7007 4.33326 3.01878
 0 0 5
 -5.15539 4.7524 2.82714
 0 0 5
 -4.20747 3.87858 3.22667
 0 0 5
 -3.23393 3.80171 3.00132
 0 0 5
 -1.93929 0.886666 2.89627
 0 0 5
 -0.795315 2.95934 2.86725
 0 0 5
 -1.9293 3.12167 3.13017
 0 0 5
 -0.886666 2.10373 3.06071
 0 0 5
 -0.795315 -2.95934 2.86725
 0 0 5
 -0.886666 -2.10373 3.06071
 0 0 5
 -1.9293 -3.12167 3.13017
 0 0 5
 -1.93929 -0.886666 2.89627
 0 0 5
 -9.79025 -7.0557 2.36889
 0 0 5
 -9.16196 -6.6029 2.53774
 0 0 5
 -8.70915 -6.27657 2.65943
 0 0 5
 -8.08086 -5.82377 2.82829
 0 0 5
 -7.62806 -5.49744 2.94997
 0 0 5
 -6.99977 -5.04464 3.11883
 0 0 5
 -5.91867 -4.26551 3.40937
 0 0 5
 -3.23393 -3.80171 3.00132
 0 0 5
 -5.64863 -5.20709 2.61926
 0 0 5
 -5.15539 -4.7524 2.82714
 0 0 5
 -4.7007 -4.33326 3.01878
 0 0 5
 -4.20747 -3.87858 3.22667
 0 0 5
 -4.82444 -3.17824 2.86841
 0 0 5
 -4.21064 -2.77388 3.13961
 0 0 5
 -3.12167 -1.86983 3.0707
LINES 382 1146
 2 0 1 
 2 2 3 
 2 4 5 
 2 6 7 
 2 8 9 
 2 10 11 
 2 12 13 
 2 14 15 
 2 16 17 
 2 18 19 
 2 20 21 
 2 22 23 
 2 24 25 
 2 26 27 
 2 28 29 
 2 30 31 
 2 32 33 
 2 34 35 
 2 36 37 
 2 38 39 
 2 40 41 
 2 42 43 
 2 44 45 
 2 46 47 
 2 48 49 
 2 50 51 
 2 52 53 
 2 54 55 
 2 56 57 
 2 58 59 
 2 60 61 
 2 62 63 
 2 64 65 
 2 66 67 
 2 68 69 
 2 70 71 
 2 72 73 
 2 74 75 
 2 76 77 
 2 78 79 
 2 80 81 
 2 82 83 
 2 84 85 
 2 86 87 
 2 88 89 
 2 90 91 
 2 92 93 
 2 94 95 
 2 96 97 
 2 98 99 
 2 100 101 
 2 102 103 
 2 104 105 
 2 106 107 
 2 108 109 
 2 110 111 
 2 112 113 
 2 114 115 
 2 116 117 
 2 118 119 
 2 120 121 
 2 122 123 
 2 124 125 
 2 126 127 
 2 128 129 
 2 130 131 
 2 132 133 
 2 134 135 
 2 136 137 
 2 138 139 
 2 140 141 
 2 142 143 
 2 144 145 
 2 146 147 
 2 148 149 
 2 150 151 
 2 152 153 
 2 154 155 
 2 156 157 
 2 158 159 
 2 160 161 
 2 162 163 
 2 164 165 
 2 166 167 
 2 168 169 
 2 170 171 
 2 172 173 
 2 174 175 
 2 176 177 
 2 178 179 
 2 180 181 
 2 182 183 
 2 184 185 
 2 186 187 
 2 188 189 
 2 190 191 
 2 192 193 
 2 194 195 
 2 196 197 
 2 198 199 
 2 200 201 
 2 202 203 
 2 204 205 
 2 206 207 
 2 208 209 
 2 210 211 
 2 212 213 
 2 214 215 
 2 216 217 
 2 218 219 
 2 220 221 
 2 222 223 
 2 224 225 
 2 226 227 
 2 228 229 
 2 230 231 
 2 232 233 
 2 234 235 
 2 236 237 
 2 238 239 
 2 240 241 
 2 242 243 
 2 244 245 
 2 246 247 
 2 248 249 
 2 250 251 
 2 252 253 
 2 254 255 
 2 256 257 
 2 258 259 
 2 260 261 
 2 262 263 
 2 264 265 
 2 266 267 
 2 268 269 
 2 270 271 
 2 272 273 
 2 274 275 
 2 276 277 
 2 278 279 
 2 280 281 
 2 282 283 
 2 284 285 
 2 286 287 
 2 288 289 
 2 290 291 
 2 292 293 
 2 294 295 
 2 296 297 
 2 298 299 
 2 300 301 
 2 302 303 
 2 304 305 
 2 306 307 
 2 308 309 
 2 310 311 
 2 312 313 
 2 314 315 
 2 316 317 
 2 318 319 
 2 320 321 
 2 322 323 
 2 324 325 
 2 326 327 
 2 328 329 
 2 330 331 
 2 332 333 
 2 334 335 
 2 336 337 
 2 338 339 
 2 340 341 
 2 342 343 
 2 344 345 
 2 346 347 
 2 348 349 
 2 350 351 
 2 352 353 
 2 354 355 
 2 356 357 
 2 358 359 
 2 360 361 
 2 362 363 
 2 364 365 
 2 366 367 
 2 368 369 
 2 370 371 
 2 372 373 
 2 374 375 
 2 376 377 
 2 378 379 
 2 380 381 
 2 382 383 
 2 384 385 
 2 386 387 
 2 388 389 
 2 390 391 
 2 392 393 
 2 394 395 
 2 396 397 
 2 398 399 
 2 400 401 
 2 402 403 
 2 404 405 
 2 406 407 
 2 408 409 
 2 410 411 
 2 412 413 
 2 414 415 
 2 416 417 
 2 418 419 
 2 420 421 
 2 422 423 
 2 424 425 
 2 426 427 
 2 428 429 
 2 430 431 
 2 432 433 
 2 434 435 
 2 436 437 
 2 438 439 
 2 440 441 
 2 442 443 
 2 444 445 
 2 446 447 
 2 448 449 
 2 450 451 
 2 452 453 
 2 454 455 
 2 456 457 
 2 458 459 
 2 460 461 
 2 462 463 
 2 464 465 
 2 466 467 
 2 468 469 
 2 470 471 
 2 472 473 
 2 474 475 
 2 476 477 
 2 478 479 
 2 480 481 
 2 482 483 
 2 484 485 
 2 486 487 
 2 488 489 
 2 490 491 
 2 492 493 
 2 494 495 
 2 496 497 
 2 498 499 
 2 500 501 
 2 502 503 
 2 504 505 
 2 506 507 
 2 508 509 
 2 510 511 
 2 512 513 
 2 514 515 
 2 516 517 
 2 518 519 
 2 520 521 
 2 522 523 
 2 524 525 
 2 526 527 
 2 528 529 
 2 530 531 
 2 532 533 
 2 534 535 
 2 536 537 
 2 538 539 
 2 540 541 
 2 542 543 
 2 544 545 
 2 546 547 
 2 548 549 
 2 550 551 
 2 552 553 
 2 554 555 
 2 556 557 
 2 558 559 
 2 560 561 
 2 562 563 
 2 564 565 
 2 566 567 
 2 568 569 
 2 570 571 
 2 572 573 
 2 574 575 
 2 576 577 
 2 578 579 
 2 580 581 
 2 582 583 
 2 584 585 
 2 586 587 
 2 588 589 
 2 590 591 
 2 592 593 
 2 594 595 
 2 596 597 
 2 598 599 
 2 600 601 
 2 602 603 
 2 604 605 
 2 606 607 
 2 608 609 
 2 610 611 
 2 612 613 
 2 614 615 
 2 616 617 
 2 618 619 
 2 620 621 
 2 622 623 
 2 624 625 
 2 626 627 
 2 628 629 
 2 630 631 
 2 632 633 
 2 634 635 
 2 636 637 
 2 638 639 
 2 640 641 
 2 642 643 
 2 644 645 
 2 646 647 
 2 648 649 
 2 650 651 
 2 652 653 
 2 654 655 
 2 656 657 
 2 658 659 
 2 660 661 
 2 662 663 
 2 664 665 
 2 666 667 
 2 668 669 
 2 670 671 
 2 672 673 
 2 674 675 
 2 676 677 
 2 678 679 
 2 680 681 
 2 682 683 
 2 684 685 
 2 686 687 
 2 688 689 
 2 690 691 
 2 692 693 
 2 694 695 
 2 696 697 
 2 698 699 
 2 700 701 
 2 702 703 
 2 704 705 
 2 706 707 
 2 708 709 
 2 710 711 
 2 712 713 
 2 714 715 
 2 716 717 
 2 718 719 
 2 720 721 
 2 722 723 
 2 724 725 
 2 726 727 
 2 728 729 
 2 730 731 
 2 732 733 
 2 734 735 
 2 736 737 
 2 738 739 
 2 740 741 
 2 742 743 
 2 744 745 
 2 746 747 
 2 748 749 
 2 750 751 
 2 752 753 
 2 754 755 
 2 756 757 
 2 758 759 
 2 760 761 
 2 762 763 
CELL_DATA 382
FIELD FieldData 5
LaunchID 1 382 int
 5
 7
 17
 17
 17
 19
 19
 19
 24
 25
 28
 31
 31
 31
 34
 34
 34
 40
 41
 58
 58
 58
 58
 58
 58
 58
 58
 60
 60
 60
 60
 61
 61
 62
 67
 68
 68
 71
 71
 71
 71
 71
 71
 71
 84
 84
 84
 84
 84
 85
 85
 85
 85
 85
 87
 89
 89
 89
 89
 89
 90
 90
 90
 90
 90
 95
 110
 112
 113
 113
 113
 113
 113
 113
 113
 113
 115
 115
 115
 115
 116
 116
 116
 122
 123
 123
 123
 126
 126
 126
 126
 126
 126
 126
 126
 126
 126
 149
 149
 149
 149
 149
 150
 150
 150
 150
 150
 151
 151
 151
 151
 151
 152
 152
 152
 152
 152
 154
 156
 161
 218
 220
 220
 220
 222
 222
 222
 222
 222
 222
 222
 225
 225
 226
 226
 229
 229
 229
 231
 231
 232
 232
 232
 233
 233
 233
 233
 233
 252
 252
 253
 253
 253
 253
 253
 254
 254
 254
 255
 255
 256
 256
 256
 264
 264
 264
 264
 264
 264
 264
 266
 266
 266
 318
 320
 320
 321
 321
 321
 321
 321
 322
 322
 326
 335
 338
 338
 339
 339
 339
 339
 339
 340
 340
 343
 343
 343
 343
 345
 347
 350
 354
 355
 358
 358
 358
 358
 358
 358
 359
 360
 360
 360
 360
 361
 361
 362
 367
 373
 379
 383
 396
 400
 412
 419
 420
 422
 422
 423
 425
 425
 425
 425
 425
 425
 427
 428
 428
 429
 429
 429
 429
 429
 429
 429
 430
 430
 430
 430
 431
 435
 440
 440
 441
 441
 443
 443
 443
 443
 443
 444
 445
 445
 445
 446
 446
 446
 446
 446
 446
 458
 458
 458
 458
 458
 459
 467
 467
 468
 468
 468
 468
 468
 468
 469
 469
 469
 470
 470
 471
 471
 471
 471
 471
 475
 479
 479
 479
 479
 479
 479
 479
 480
 481
 481
 481
 481
 481
 580
 581
 581
 581
 582
 583
 584
 584
 585
 585
 585
 585
 585
 586
 586
 587
 587
 587
 588
 589
 589
 590
 590
 590
 590
 590
 591
 591
 592
 593
 595
 603
 603
 603
 603
 603
 606
 606
 606
 606
 606
 606
 606
 607
 608
 608
 609
 609
 609
 609
 610
 614
 616
 617
 619
 624
 626
 628
 631
 634
 634
 634
 634
 634
 634
 634
 635
 636
 636
 636
 636
 637
 637
 638
ReceiverID 1 382 int
 213
 207
 136
 137
 155
 275
 296
 297
 271
 269
 210
 265
 283
 284
 123
 124
 145
 149
 151
 19
 38
 39
 57
 58
 59
 77
 96
 216
 217
 218
 219
 159
 179
 194
 234
 259
 279
 336
 357
 377
 378
 379
 398
 399
 333
 353
 354
 374
 394
 331
 351
 371
 391
 392
 270
 329
 349
 369
 388
 389
 327
 346
 347
 366
 386
 273
 226
 267
 324
 343
 361
 362
 363
 380
 381
 382
 201
 202
 203
 204
 241
 260
 261
 186
 140
 141
 161
 0
 1
 20
 21
 22
 41
 42
 43
 63
 84
 31
 32
 51
 71
 91
 34
 54
 73
 74
 93
 26
 46
 66
 67
 87
 28
 29
 49
 69
 89
 150
 153
 147
 18
 99
 118
 119
 78
 79
 97
 98
 116
 117
 135
 214
 215
 195
 196
 197
 198
 199
 174
 175
 176
 177
 178
 138
 139
 156
 157
 158
 235
 236
 276
 277
 278
 298
 299
 256
 257
 258
 254
 255
 237
 238
 239
 295
 316
 317
 337
 338
 358
 359
 318
 319
 339
 395
 291
 311
 332
 352
 372
 373
 393
 292
 312
 250
 385
 288
 308
 328
 348
 367
 368
 387
 289
 309
 330
 350
 370
 390
 233
 232
 253
 251
 231
 334
 355
 375
 376
 396
 397
 274
 294
 314
 315
 335
 293
 313
 272
 212
 190
 191
 230
 189
 208
 229
 227
 247
 245
 246
 228
 326
 345
 364
 365
 383
 384
 268
 287
 307
 285
 303
 304
 322
 323
 341
 342
 286
 305
 306
 325
 266
 249
 205
 206
 224
 225
 220
 221
 222
 223
 240
 200
 242
 243
 244
 262
 263
 264
 280
 281
 282
 301
 302
 320
 321
 340
 360
 184
 185
 120
 121
 122
 142
 143
 144
 162
 163
 164
 165
 166
 160
 180
 181
 182
 183
 2
 61
 62
 82
 83
 103
 104
 125
 40
 60
 80
 81
 101
 102
 14
 15
 16
 35
 11
 12
 112
 132
 33
 52
 53
 72
 92
 111
 131
 4
 5
 25
 6
 109
 129
 27
 47
 48
 68
 88
 108
 128
 8
 9
 170
 10
 30
 50
 70
 90
 17
 36
 37
 55
 56
 75
 94
 152
 113
 133
 95
 114
 115
 134
 154
 171
 193
 173
 192
 187
 188
 167
 169
 3
 23
 24
 44
 45
 65
 86
 146
 85
 105
 106
 126
 107
 127
 148
Eabs 1 382 double
 3.16718
 3.16718
 1.70765
 1.54082
 2.07034
 2.07034
 1.70765
 1.54082
 3.10994
 3.10994
 0
 2.07034
 1.54082
 1.70765
 1.54082
 1.70765
 2.07034
 3.10994
 3.10994
 0.974714
 1.08633
 1.02783
 1.2268
 1.15271
 1.08706
 1.31214
 1.52276
 2.04264
 1.77274
 1.56585
 1.40219
 1.36857
 1.4068
 2.6402
 2.6402
 1.4068
 1.36857
 1.52276
 1.31214
 1.2268
 1.15271
 1.08706
 1.08633
 1.02783
 1.85144
 1.64824
 1.56202
 1.41486
 1.29304
 2.02432
 1.76223
 1.56022
 1.39976
 1.3756
 3.16718
 2.02432
 1.76223
 1.56022
 1.3756
 1.39976
 1.85144
 1.56202
 1.64824
 1.41486
 1.29304
 2.59532
 2.6402
 2.59532
 1.52276
 1.31214
 1.08706
 1.15271
 1.2268
 0.975308
 1.02783
 1.08633
 1.40219
 1.56585
 1.77274
 2.04264
 1.4068
 1.24605
 1.36857
 2.6402
 1.24605
 1.36857
 1.4068
 0.927357
 0.974714
 0.975308
 1.02783
 1.08633
 1.08706
 1.15271
 1.2268
 1.31214
 1.52276
 1.39976
 1.3756
 1.56022
 1.76223
 2.02432
 1.29304
 1.41486
 1.64824
 1.56202
 1.85144
 1.29304
 1.41486
 1.56202
 1.64824
 1.85144
 1.3756
 1.39976
 1.56022
 1.76223
 2.02432
 3.16718
 2.59532
 2.59532
 1.03454
 1.20575
 1.37595
 1.26555
 1.20783
 1.12849
 1.3828
 1.2798
 1.61707
 1.47796
 1.94689
 2.74836
 2.28108
 2.2901
 1.95904
 1.78356
 1.576
 1.41171
 2.54185
 2.16793
 1.93012
 1.69571
 1.51207
 1.42387
 1.29753
 1.86605
 1.65486
 1.48662
 2.2901
 1.95904
 1.86605
 1.65486
 1.48662
 1.42387
 1.29753
 1.93012
 1.69571
 1.51207
 2.54185
 2.16793
 1.78356
 1.576
 1.41171
 1.94689
 1.61707
 1.47796
 1.3828
 1.2798
 1.20783
 1.12849
 1.37595
 1.26555
 1.20575
 1.27046
 2.705
 2.26406
 1.9523
 1.7152
 1.52945
 1.47686
 1.33705
 2.53221
 2.15971
 3.33424
 1.27046
 2.53221
 2.15971
 1.9523
 1.7152
 1.47686
 1.52945
 1.33705
 2.705
 2.26406
 2.04744
 1.77635
 1.56866
 1.40445
 2.94949
 3.41357
 2.90244
 3.18842
 2.94206
 1.75553
 1.48439
 1.36213
 1.28581
 1.19305
 1.13408
 2.31658
 2.13911
 1.91465
 1.74579
 1.59335
 2.34199
 2.04403
 2.87799
 3.37396
 2.42298
 2.94206
 2.42298
 2.94206
 3.37396
 2.94206
 2.94949
 2.90244
 2.16793
 2.54185
 3.41357
 1.75553
 1.48439
 1.28581
 1.36213
 1.13408
 1.19305
 2.87799
 2.34199
 2.04403
 1.94689
 1.47796
 1.61707
 1.2798
 1.3828
 1.12849
 1.20783
 2.13911
 1.74579
 1.91465
 1.59335
 2.31658
 3.18842
 2.28108
 2.74836
 1.95904
 2.2901
 1.27844
 1.41171
 1.576
 1.78356
 1.26207
 1.30528
 1.51207
 1.69571
 1.93012
 1.48662
 1.65486
 1.86605
 1.19177
 1.29753
 1.42387
 1.26555
 1.37595
 1.12012
 1.20575
 1.07302
 1.0345
 1.95904
 2.2901
 1.19177
 1.29753
 1.42387
 1.48662
 1.65486
 1.86605
 1.51207
 1.69571
 1.93012
 2.16793
 2.54185
 1.26207
 1.27844
 1.41171
 1.576
 1.78356
 1.03454
 1.12849
 1.20783
 1.2798
 1.3828
 1.47796
 1.61707
 1.94689
 1.0345
 1.07302
 1.12012
 1.20575
 1.26555
 1.37595
 1.21577
 1.17351
 1.12541
 1.27046
 1.30041
 1.28234
 2.15971
 2.53221
 1.33705
 1.52945
 1.47686
 1.7152
 1.9523
 2.26406
 2.705
 1.12541
 1.17351
 1.27046
 1.21577
 2.26406
 2.705
 1.33705
 1.47686
 1.52945
 1.7152
 1.9523
 2.15971
 2.53221
 1.28234
 1.30041
 3.33424
 1.27136
 1.40445
 1.56866
 1.77635
 2.04744
 1.0613
 1.19305
 1.13408
 1.36213
 1.28581
 1.48439
 1.75553
 2.87799
 2.04403
 2.34199
 1.59335
 1.91465
 1.74579
 2.13911
 2.31658
 3.18842
 2.94949
 2.90244
 3.41357
 2.94949
 3.41357
 2.90244
 3.18842
 1.0613
 1.13408
 1.19305
 1.28581
 1.36213
 1.48439
 1.75553
 2.31658
 1.59335
 1.74579
 1.91465
 2.13911
 2.04403
 2.34199
 2.87799
EdB 1 382 double
 130.013
 130.013
 124.648
 123.755
 126.321
 126.321
 124.648
 123.755
 129.855
 129.855
 -1
 126.321
 123.755
 124.648
 123.755
 124.648
 126.321
 129.855
 129.855
 119.778
 120.719
 120.238
 121.775
 121.234
 120.725
 122.36
 123.653
 126.204
 124.973
 123.895
 122.936
 122.725
 122.965
 128.433
 128.433
 122.965
 122.725
 123.653
 122.36
 121.775
 121.234
 120.725
 120.719
 120.238
 125.35
 124.34
 123.874
 123.014
 122.232
 126.126
 124.921
 123.864
 122.921
 122.77
 130.013
 126.126
 124.921
 123.864
 122.77
 122.921
 125.35
 123.874
 124.34
 123.014
 122.232
 128.284
 128.433
 128.284
 123.653
 122.36
 120.725
 121.234
 121.775
 119.783
 120.238
 120.719
 122.936
 123.895
 124.973
 126.204
 122.965
 121.911
 122.725
 128.433
 121.911
 122.725
 122.965
 119.345
 119.778
 119.783
 120.238
 120.719
 120.725
 121.234
 121.775
 122.36
 123.653
 122.921
 122.77
 123.864
 124.921
 126.126
 122.232
 123.014
 124.34
 123.874
 125.35
 122.232
 123.014
 123.874
 124.34
 125.35
 122.77
 122.921
 123.864
 124.921
 126.126
 130.013
 128.284
 128.284
 120.295
 121.625
 122.772
 122.046
 121.64
 121.05
 122.815
 122.143
 124.175
 123.393
 125.787
 128.781
 127.163
 127.197
 125.841
 125.026
 123.951
 122.995
 128.103
 126.721
 125.712
 124.587
 123.591
 123.069
 122.262
 125.418
 124.375
 123.444
 127.197
 125.841
 125.418
 124.375
 123.444
 123.069
 122.262
 125.712
 124.587
 123.591
 128.103
 126.721
 125.026
 123.951
 122.995
 125.787
 124.175
 123.393
 122.815
 122.143
 121.64
 121.05
 122.772
 122.046
 121.625
 122.079
 128.643
 127.098
 125.811
 124.686
 123.691
 123.387
 122.523
 128.07
 126.688
 130.46
 122.079
 128.07
 126.688
 125.811
 124.686
 123.387
 123.691
 122.523
 128.643
 127.098
 126.224
 124.991
 123.911
 122.95
 129.395
 130.664
 129.255
 130.072
 129.373
 124.888
 123.431
 122.684
 122.184
 121.533
 121.093
 127.297
 126.605
 125.642
 124.84
 124.046
 127.392
 126.21
 129.182
 130.563
 127.687
 129.373
 127.687
 129.373
 130.563
 129.373
 129.395
 129.255
 126.721
 128.103
 130.664
 124.888
 123.431
 122.184
 122.684
 121.093
 121.533
 129.182
 127.392
 126.21
 125.787
 123.393
 124.175
 122.143
 122.815
 121.05
 121.64
 126.605
 124.84
 125.642
 124.046
 127.297
 130.072
 127.163
 128.781
 125.841
 127.197
 122.134
 122.995
 123.951
 125.026
 122.022
 122.314
 123.591
 124.587
 125.712
 123.444
 124.375
 125.418
 121.524
 122.262
 123.069
 122.046
 122.772
 120.985
 121.625
 120.612
 120.295
 125.841
 127.197
 121.524
 122.262
 123.069
 123.444
 124.375
 125.418
 123.591
 124.587
 125.712
 126.721
 128.103
 122.022
 122.134
 122.995
 123.951
 125.026
 120.295
 121.05
 121.64
 122.143
 122.815
 123.393
 124.175
 125.787
 120.295
 120.612
 120.985
 121.625
 122.046
 122.772
 121.697
 121.39
 121.026
 122.079
 122.282
 122.16
 126.688
 128.07
 122.523
 123.691
 123.387
 124.686
 125.811
 127.098
 128.643
 121.026
 121.39
 122.079
 121.697
 127.098
 128.643
 122.523
 123.387
 123.691
 124.686
 125.811
 126.688
 128.07
 122.16
 122.282
 130.46
 122.085
 122.95
 123.911
 124.991
 126.224
 120.517
 121.533
 121.093
 122.684
 122.184
 123.431
 124.888
 129.182
 126.21
 127.392
 124.046
 125.642
 124.84
 126.605
 127.297
 130.072
 129.395
 129.255
 130.664
 129.395
 130.664
 129.255
 130.072
 120.517
 121.093
 121.533
 122.184
 122.684
 123.431
 124.888
 127.297
 124.046
 124.84
 125.642
 126.605
 126.21
 127.392
 129.182
Phase 1 382 double
 4.3411
 1.19951
 2.99653
 -3.8884
 -2.66317
 -5.80476
 6.13812
 -7.03
 -3.99952
 -0.857931
 0
 -2.66317
 -3.8884
 2.99653
 -7.03
 6.13812
 -5.80476
 -3.99952
 -0.857931
 1.87628
 -4.60839
 2.0354
 1.47331
 1.83392
 -4.08866
 -4.65076
 1.43094
 3.29634
 -0.637207
 -4.57075
 -8.5043
 2.84493
 0.52314
 2.7324
 -0.409191
 -2.61845
 -0.296661
 4.57253
 -7.79235
 4.6149
 -1.30768
 -7.23026
 -7.74998
 5.177
 -1.7156
 0.592483
 -7.83886
 -5.53077
 -3.22269
 -1.50526
 -4.7546
 -8.00394
 7.59627
 -2.61845
 2.89407
 1.63634
 -1.61301
 -4.86235
 0.52314
 4.45467
 1.42599
 -4.69726
 -2.54911
 -2.38918
 -0.0810947
 -6.7116
 2.7324
 -3.57
 1.43094
 -4.65076
 -4.08866
 1.83392
 1.47331
 2.39601
 2.0354
 -4.60839
 -5.3627
 -1.42916
 2.50439
 0.154744
 0.52314
 -0.404413
 2.84493
 -0.409191
 -3.54601
 -0.296661
 -2.61845
 -7.18789
 -1.26531
 -0.745584
 5.177
 -7.74998
 -7.23026
 -1.30768
 4.6149
 -7.79235
 4.57253
 4.45467
 0.52314
 -4.86235
 -1.61301
 1.63634
 -0.0810947
 -2.38918
 -2.54911
 -4.69726
 1.42599
 -3.22269
 -5.53077
 -7.83886
 0.592483
 -1.7156
 -2.61845
 7.59627
 -8.00394
 -4.7546
 -1.50526
 2.89407
 -3.57
 -6.7116
 -0.608682
 -4.56342
 -0.769789
 2.9524
 1.65639
 -2.06184
 -0.453327
 2.11163
 3.72014
 0.00190562
 1.61042
 6.59881
 5.6138
 -3.04248
 1.6734
 -1.12183
 -5.33544
 3.01732
 1.8009
 -0.994849
 -0.486123
 -1.54663
 -2.60713
 -1.97858
 -1.45226
 2.40089
 2.92721
 -2.82966
 0.0991165
 -1.46819
 -0.740704
 -0.214384
 0.311936
 -5.12018
 -4.59385
 2.65547
 1.59496
 0.534458
 -1.34069
 2.14674
 -4.26343
 -8.47703
 6.15892
 -1.53118
 6.86173
 -3.13969
 -3.59492
 5.25322
 4.79799
 -5.20343
 2.3718
 6.09399
 -7.70501
 6.2065
 -0.203893
 0.322427
 2.65547
 1.59496
 0.534458
 0.442256
 -0.61825
 -1.34069
 2.14674
 -2.31789
 3.06491
 1.8009
 -0.994849
 -0.486123
 -1.54663
 -2.69934
 -2.60713
 2.52334
 2.9377
 -2.81917
 2.2892
 -0.413768
 -3.11673
 -5.8197
 -3.83642
 4.8681
 -9.20476
 4.8681
 1.68585
 6.46433
 -3.89319
 2.81738
 4.59884
 -7.54015
 -5.75868
 5.95972
 5.02381
 -1.43505
 -4.44219
 7.9485
 6.08223
 -5.47846
 -9.20476
 -3.47684
 -2.51279
 -1.45575
 -2.51279
 1.68585
 -0.335244
 -1.45575
 -0.694826
 -6.06316
 -0.994849
 1.8009
 1.72651
 3.32274
 -0.751601
 1.45725
 -0.324217
 -2.61709
 -4.39855
 -6.06316
 2.94063
 -2.33687
 1.61042
 0.00190562
 3.72014
 2.11163
 -0.453327
 -2.06184
 1.65639
 1.88222
 -1.3006
 1.70654
 4.8069
 2.81813
 1.72651
 2.47221
 3.45721
 1.6734
 -3.04248
 -1.19628
 3.01732
 -5.33544
 -1.12183
 -3.26247
 2.36619
 -2.60713
 -1.54663
 -0.486123
 -2.82966
 2.92721
 2.40089
 -0.925942
 -1.45226
 -1.97858
 2.9524
 -0.769789