# vtk DataFile Version 2.0
Ray Path Visualization
ASCII
DATASET POLYDATA

POINTS 10 float
 0 0 5
 0 5.15236 3.53632
 0 0 5
 0 3.09017 0
 0 4.95967 3.02492
 0 0 5
 0 -3.09017 0
 0 -4.95967 3.02492
 0 0 5
 0 -5.15236 3.53632
LINES 4 14
 2 0 1 
 3 2 3 4 
 3 5 6 7 
 2 8 9 
CELL_DATA 4
FIELD FieldData 2
LaunchID 1 4 int
 60
 97
 106
 115
ReceiverID 1 4 int
 1
 1
 0
 0
