# vtk DataFile Version 2.0
Ray Path Visualization
ASCII
DATASET POLYDATA

POINTS 68 float
 0 0 5
 0 3.06525 3.10557
 0 0 5
 0 -3.06525 3.10557
 0 0 5
 0 0 3
 0 0 5
 0 6 3
 0 0 5
 0 7 3
 0 0 5
 0 8 3
 0 0 5
 0 9 3
 0 0 5
 0 3.125 0
 0 5 3
 0 0 5
 0 -3.125 0
 0 -5 3
 0 0 5
 0 -10 3
 0 0 5
 0 -9 3
 0 0 5
 0 -8 3
 0 0 5
 0 -7 3
 0 0 5
 0 -6 3
 0 0 5
 0 4.08739 3.19826
 0 0 5
 0 5 3
 0 0 5
 0 2.01177 3.01191
 0 0 5
 0 4.375 0
 0 7 3
 0 0 5
 0 5 0
 0 8 3
 0 0 5
 0 5.625 0
 0 9 3
 0 0 5
 0 1.25 0
 0 2 3
 0 0 5
 0 -5.625 0
 0 -9 3
 0 0 5
 0 -5 0
 0 -8 3
 0 0 5
 0 -4.375 0
 0 -7 3
 0 0 5
 0 -2.01177 3.01191
 0 0 5
 0 -1.25 0
 0 -2 3
 0 0 5
 0 -5 3
 0 0 5
 0 -4.08739 3.19826
 0 0 5
 0 -10 3
LINES 29 97
 2 0 1 
 2 2 3 
 2 4 5 
 2 6 7 
 2 8 9 
 2 10 11 
 2 12 13 
 3 14 15 16 
 3 17 18 19 
 2 20 21 
 2 22 23 
 2 24 25 
 2 26 27 
 2 28 29 
 2 30 31 
 2 32 33 
 2 34 35 
 3 36 37 38 
 3 39 40 41 
 3 42 43 44 
 3 45 46 47 
 3 48 49 50 
 3 51 52 53 
 3 54 55 56 
 2 57 58 
 3 59 60 61 
 2 62 63 
 2 64 65 
 2 66 67 
CELL_DATA 29
FIELD FieldData 5
LaunchID 1 29 int
 5
 7
 28
 60
 60
 60
 60
 97
 106
 115
 115
 115
 115
 115
 225
 225
 367
 367
 367
 367
 390
 400
 400
 400
 400
 417
 440
 440
 444
ReceiverID 1 29 int
 13
 7
 10
 16
 17
 18
 19
 15
 5
 0
 1
 2
 3
 4
 14
 15
 12
 17
 18
 19
 12
 1
 2
 3
 8
 8
 5
 6
 0
Eabs 1 29 double
 2.14962
 2.14962
 0
 1.22474
 1.26949
 0.766437
 1.03537
 1.37511
 1.604
 1.51911
 0.704158
 1.14209
 0.877262
 1.22474
 1.73409
 1.37511
 2.3454
 1.26949
 0.766437
 1.03537
 2.3454
 0.704158
 1.14209
 0.877262
 2.75929
 2.75929
 1.604
 1.73409
 1.51911
EdB 1 29 double
 126.647
 126.647
 -1
 121.761
 122.073
 117.69
 120.302
 122.767
 124.104
 123.632
 116.953
 121.154
 118.863
 121.761
 124.781
 122.767
 127.404
 122.073
 117.69
 120.302
 127.404
 116.953
 121.154
 118.863
 128.816
 128.816
 124.104
 124.781
 123.632
Phase 1 29 double
 0.588318
 3.72991
 0
 -5.7856
 -1.24749
 1.88789
 -0.199751
 -0.75484
 -3.99491
 -1.205
 2.34818
 -8.01183
 3.10831
 -2.64401
 -2.88763
 -0.75484
 -2.47478
 -1.24749
 1.88789
 -0.199751
 -2.47478
 2.34818
 -8.01183
 3.10831
 0.977381
 0.977381
 -3.99491
 0.253958
 -1.205
