# vtk DataFile Version 2.0
Ray Path Visualization
ASCII
DATASET POLYDATA

POINTS 2461 float
 0 0 5
 -3.09017 0 0
 -4.06525 0 1.57771
 0 0 5
 -3.09017 0 0
 -4.06525 0 1.57771
 0 0 5
 -3.09017 0 0
 -4.06525 0 1.57771
 0 0 5
 -3.09017 0 0
 -3.78885 0 1.1305
 0 0 5
 -3.09017 0 0
 -3.78885 0 1.1305
 0 0 5
 -3.09017 0 0
 -3.78885 0 1.1305
 0 0 5
 -3.09017 0 0
 -3.51246 0 0.683282
 0 0 5
 -3.09017 0 0
 -3.51246 0 0.683282
 0 0 5
 -3.09017 0 0
 -3.51246 0 0.683282
 0 0 5
 -2.34164 0 1.21115
 0 0 5
 2.34164 0 1.21115
 0 0 5
 3.09017 0 0
 3.51246 0 0.683282
 0 0 5
 3.09017 0 0
 3.51246 0 0.683282
 0 0 5
 3.09017 0 0
 3.51246 0 0.683282
 0 0 5
 3.09017 0 0
 3.78885 0 1.1305
 0 0 5
 3.09017 0 0
 3.78885 0 1.1305
 0 0 5
 3.09017 0 0
 3.78885 0 1.1305
 0 0 5
 3.09017 0 0
 4.06525 0 1.57771
 0 0 5
 3.09017 0 0
 4.06525 0 1.57771
 0 0 5
 3.09017 0 0
 4.06525 0 1.57771
 0 0 5
 0 8.09017 0
 0 8.47214 0.236068
 0 0 5
 0 8.09017 0
 0 9.19574 0.683282
 0 0 5
 0 6.8541 0.763932
 0 0 5
 0 8.09017 0
 0 8.47214 0.236068
 0 0 5
 0 8.09017 0
 0 9.19574 0.683282
 0 0 5
 0 5.40689 1.65836
 0 0 5
 0 6.1305 1.21115
 0 0 5
 0 6.8541 0.763932
 0 0 5
 0 7.57771 0.316718
 0 0 5
 0 8.09017 0
 0 9.19574 0.683282
 0 0 5
 0 6.8541 0.763932
 0 0 5
 0 8.09017 0
 0 8.47214 0.236068
 0 0 5
 0 8.09017 0
 0 9.19574 0.683282
 0 0 5
 0 8.09017 0
 0 8.47214 0.236068
 0 0 5
 0 8.09017 0
 0 9.19574 0.683282
 0 0 5
 0 -8.09017 0
 0 -9.91935 1.1305
 0 0 5
 0 -8.09017 0
 0 -9.91935 1.1305
 0 0 5
 0 -8.09017 0
 0 -9.19574 0.683282
 0 0 5
 0 -8.09017 0
 0 -8.47214 0.236068
 0 0 5
 0 -8.09017 0
 0 -9.91935 1.1305
 0 0 5
 0 -8.09017 0
 0 -9.19574 0.683282
 0 0 5
 0 -8.09017 0
 0 -8.47214 0.236068
 0 0 5
 0 -6.8541 0.763932
 0 0 5
 0 -8.09017 0
 0 -9.91935 1.1305
 0 0 5
 0 -8.09017 0
 0 -9.19574 0.683282
 0 0 5
 0 -7.57771 0.316718
 0 0 5
 0 -6.8541 0.763932
 0 0 5
 0 -6.1305 1.21115
 0 0 5
 0 -5.40689 1.65836
 0 0 5
 0 -8.09017 0
 0 -9.91935 1.1305
 0 0 5
 0 -8.09017 0
 0 -9.19574 0.683282
 0 0 5
 0 -8.09017 0
 0 -8.47214 0.236068
 0 0 5
 0 -6.8541 0.763932
 0 0 5
 0 -8.09017 0
 0 -9.91935 1.1305
 0 0 5
 0 -8.09017 0
 0 -9.19574 0.683282
 0 0 5
 0 -8.09017 0
 0 -8.47214 0.236068
 0 0 5
 0 -8.09017 0
 0 -9.91935 1.1305
 0 0 5
 -6.00861 9.72214 1.28647
 0 0 5
 -5.3541 8.66312 1.69098
 0 0 5
 -5.75861 9.31763 1.44098
 0 0 5
 -4.69959 7.6041 2.09549
 0 0 5
 -5.1041 8.25861 1.84549
 0 0 5
 -5.50861 8.91312 1.59549
 0 0 5
 -4.44959 7.19959 2.25
 0 0 5
 -4.8541 7.8541 2
 0 0 5
 -5.25861 8.50861 1.75
 0 0 5
 4.44959 7.19959 2.25
 0 0 5
 4.8541 7.8541 2
 0 0 5
 5.25861 8.50861 1.75
 0 0 5
 4.69959 7.6041 2.09549
 0 0 5
 5.1041 8.25861 1.84549
 0 0 5
 5.50861 8.91312 1.59549
 0 0 5
 5.3541 8.66312 1.69098
 0 0 5
 5.75861 9.31763 1.44098
 0 0 5
 6.00861 9.72214 1.28647
 0 0 5
 5.39058 2.05902 1.66844
 0 0 5
 6.04508 2.30902 1.26393
 0 0 5
 6.29508 2.40451 1.10942
 0 0 5
 6.69959 2.55902 0.859424
 0 0 5
 6.94959 2.65451 0.704915
 0 0 5
 8.09017 3.09017 0
 8.25861 3.15451 0.104102
 0 0 5
 7.3541 2.80902 0.454915
 0 0 5
 7.6041 2.90451 0.300407
 0 0 5
 7.8541 3 0.145898
 0 0 5
 8.09017 3.09017 0
 8.91312 3.40451 0.50861
 0 0 5
 8.09017 3.09017 0
 9.16312 3.5 0.663119
 0 0 5
 8.09017 3.09017 0
 8.56763 3.27254 0.295085
 0 0 5
 8.09017 3.09017 0
 8.81763 3.36803 0.449593
 0 0 5
 8.09017 3.09017 0
 0 0 5
 8.09017 3.09017 0
 9.31763 3.55902 0.75861
 0 0 5
 8.09017 3.09017 0
 9.56763 3.65451 0.913119
 0 0 5
 8.09017 3.09017 0
 9.81763 3.75 1.06763
 0 0 5
 5.39058 -2.05902 1.66844
 0 0 5
 6.29508 -2.40451 1.10942
 0 0 5
 6.04508 -2.30902 1.26393
 0 0 5
 8.09017 -3.09017 0
 8.25861 -3.15451 0.104102
 0 0 5
 6.94959 -2.65451 0.704915
 0 0 5
 6.69959 -2.55902 0.859424
 0 0 5
 8.09017 -3.09017 0
 9.16312 -3.5 0.663119
 0 0 5
 8.09017 -3.09017 0
 8.91312 -3.40451 0.50861
 0 0 5
 7.8541 -3 0.145898
 0 0 5
 7.6041 -2.90451 0.300407
 0 0 5
 7.3541 -2.80902 0.454915
 0 0 5
 8.09017 -3.09017 0
 9.81763 -3.75 1.06763
 0 0 5
 8.09017 -3.09017 0
 9.56763 -3.65451 0.913119
 0 0 5
 8.09017 -3.09017 0
 9.31763 -3.55902 0.75861
 0 0 5
 8.09017 -3.09017 0
 0 0 5
 8.09017 -3.09017 0
 8.81763 -3.36803 0.449593
 0 0 5
 8.09017 -3.09017 0
 8.56763 -3.27254 0.295085
 0 0 5
 1.90983 3.09017 0
 2.05902 3.33156 0.390576
 0 0 5
 1.90983 3.09017 0
 2.21353 3.58156 0.795085
 0 0 5
 1.90983 3.09017 0
 2 3.23607 0.236068
 0 0 5
 1.90983 3.09017 0
 2.15451 3.48607 0.640576
 0 0 5
 1.90983 3.09017 0
 2.30902 3.73607 1.04508
 0 0 5
 1.90983 3.09017 0
 2.46353 3.98607 1.44959
 0 0 5
 1.90983 3.09017 0
 2.25 3.64058 0.890576
 0 0 5
 1.90983 3.09017 0
 2.40451 3.89058 1.29508
 0 0 5
 1.90983 3.09017 0
 2.55902 4.14058 1.69959
 0 0 5
 1.90983 3.09017 0
 2.5 4.04508 1.54508
 0 0 5
 1.90983 3.09017 0
 2.65451 4.29508 1.94959
 0 0 5
 -1.90983 3.09017 0
 -2.5 4.04508 1.54508
 0 0 5
 -1.90983 3.09017 0
 -2.65451 4.29508 1.94959
 0 0 5
 -1.90983 3.09017 0
 -2.25 3.64058 0.890576
 0 0 5
 -1.90983 3.09017 0
 -2.40451 3.89058 1.29508
 0 0 5
 -1.90983 3.09017 0
 -2.55902 4.14058 1.69959
 0 0 5
 -1.90983 3.09017 0
 -2 3.23607 0.236068
 0 0 5
 -1.90983 3.09017 0
 -2.15451 3.48607 0.640576
 0 0 5
 -1.90983 3.09017 0
 -2.30902 3.73607 1.04508
 0 0 5
 -1.90983 3.09017 0
 -2.46353 3.98607 1.44959
 0 0 5
 -1.90983 3.09017 0
 -2.05902 3.33156 0.390576
 0 0 5
 -1.90983 3.09017 0
 -2.21353 3.58156 0.795085
 0 0 5
 0 0 1
 0 0 5
 -1.90983 -3.09017 0
 -2.65451 -4.29508 1.94959
 0 0 5
 -1.90983 -3.09017 0
 -2.5 -4.04508 1.54508
 0 0 5
 -1.90983 -3.09017 0
 -2.55902 -4.14058 1.69959
 0 0 5
 -1.90983 -3.09017 0
 -2.40451 -3.89058 1.29508
 0 0 5
 -1.90983 -3.09017 0
 -2.25 -3.64058 0.890576
 0 0 5
 -1.90983 -3.09017 0
 -2.46353 -3.98607 1.44959
 0 0 5
 -1.90983 -3.09017 0
 -2.30902 -3.73607 1.04508
 0 0 5
 -1.90983 -3.09017 0
 -2.15451 -3.48607 0.640576
 0 0 5
 -1.90983 -3.09017 0
 -2 -3.23607 0.236068
 0 0 5
 -1.90983 -3.09017 0
 -2.21353 -3.58156 0.795085
 0 0 5
 -1.90983 -3.09017 0
 -2.05902 -3.33156 0.390576
 0 0 5
 1.90983 -3.09017 0
 2.21353 -3.58156 0.795085
 0 0 5
 1.90983 -3.09017 0
 2.05902 -3.33156 0.390576
 0 0 5
 1.90983 -3.09017 0
 2.46353 -3.98607 1.44959
 0 0 5
 1.90983 -3.09017 0
 2.30902 -3.73607 1.04508
 0 0 5
 1.90983 -3.09017 0
 2.15451 -3.48607 0.640576
 0 0 5
 1.90983 -3.09017 0
 2 -3.23607 0.236068
 0 0 5
 1.90983 -3.09017 0
 2.55902 -4.14058 1.69959
 0 0 5
 1.90983 -3.09017 0
 2.40451 -3.89058 1.29508
 0 0 5
 1.90983 -3.09017 0
 2.25 -3.64058 0.890576
 0 0 5
 1.90983 -3.09017 0
 2.65451 -4.29508 1.94959
 0 0 5
 1.90983 -3.09017 0
 2.5 -4.04508 1.54508
 0 0 5
 5.25861 -8.50861 1.75
 0 0 5
 4.8541 -7.8541 2
 0 0 5
 4.44959 -7.19959 2.25
 0 0 5
 5.91312 -9.56763 1.34549
 0 0 5
 5.50861 -8.91312 1.59549
 0 0 5
 5.1041 -8.25861 1.84549
 0 0 5
 4.69959 -7.6041 2.09549
 0 0 5
 6.16312 -9.97214 1.19098
 0 0 5
 5.75861 -9.31763 1.44098
 0 0 5
 5.3541 -8.66312 1.69098
 0 0 5
 6.41312 -10.3766 1.03647
 0 0 5
 6.00861 -9.72214 1.28647
 0 0 5
 6.66312 -10.7812 0.881966
 0 0 5
 -6.66312 -10.7812 0.881966
 0 0 5
 -6.41312 -10.3766 1.03647
 0 0 5
 -6.00861 -9.72214 1.28647
 0 0 5
 -6.16312 -9.97214 1.19098
 0 0 5
 -5.75861 -9.31763 1.44098
 0 0 5
 -5.3541 -8.66312 1.69098
 0 0 5
 -5.91312 -9.56763 1.34549
 0 0 5
 -5.50861 -8.91312 1.59549
 0 0 5
 -5.1041 -8.25861 1.84549
 0 0 5
 -4.69959 -7.6041 2.09549
 0 0 5
 -5.25861 -8.50861 1.75
 0 0 5
 -4.8541 -7.8541 2
 0 0 5
 -4.44959 -7.19959 2.25
 0 0 5
 -8.09017 -3.09017 0
 -10.7221 -4.09549 1.62664
 0 0 5
 -8.09017 -3.09017 0
 -10.4721 -4 1.47214
 0 0 5
 -8.09017 -3.09017 0
 -10.2221 -3.90451 1.31763
 0 0 5
 -8.09017 -3.09017 0
 -9.97214 -3.80902 1.16312
 0 0 5
 -8.09017 -3.09017 0
 -9.72214 -3.71353 1.00861
 0 0 5
 -8.09017 -3.09017 0
 -9.47214 -3.61803 0.854102
 0 0 5
 -8.09017 -3.09017 0
 -9.22214 -3.52254 0.699593
 0 0 5
 -8.09017 -3.09017 0
 -9.81763 -3.75 1.06763
 0 0 5
 -8.09017 -3.09017 0
 -9.56763 -3.65451 0.913119
 0 0 5
 -8.09017 -3.09017 0
 -9.31763 -3.55902 0.75861
 0 0 5
 -8.09017 -3.09017 0
 0 0 5
 -8.09017 -3.09017 0
 -8.81763 -3.36803 0.449593
 0 0 5
 -8.09017 -3.09017 0
 -8.56763 -3.27254 0.295085
 0 0 5
 -8.09017 -3.09017 0
 -9.16312 -3.5 0.663119
 0 0 5
 -8.09017 -3.09017 0
 -8.91312 -3.40451 0.50861
 0 0 5
 -7.8541 -3 0.145898
 0 0 5
 -7.6041 -2.90451 0.300407
 0 0 5
 -7.3541 -2.80902 0.454915
 0 0 5
 -8.09017 -3.09017 0
 -8.25861 -3.15451 0.104102
 0 0 5
 -6.94959 -2.65451 0.704915
 0 0 5
 -6.69959 -2.55902 0.859424
 0 0 5
 -6.29508 -2.40451 1.10942
 0 0 5
 -6.04508 -2.30902 1.26393
 0 0 5
 -5.39058 -2.05902 1.66844
 0 0 5
 -8.09017 3.09017 0
 -9.22214 3.52254 0.699593
 0 0 5
 -8.09017 3.09017 0
 -9.47214 3.61803 0.854102
 0 0 5
 -8.09017 3.09017 0
 -9.72214 3.71353 1.00861
 0 0 5
 -8.09017 3.09017 0
 -9.97214 3.80902 1.16312
 0 0 5
 -8.09017 3.09017 0
 -10.2221 3.90451 1.31763
 0 0 5
 -8.09017 3.09017 0
 -10.4721 4 1.47214
 0 0 5
 -8.09017 3.09017 0
 -10.7221 4.09549 1.62664
 0 0 5
 -8.09017 3.09017 0
 -8.56763 3.27254 0.295085
 0 0 5
 -8.09017 3.09017 0
 -8.81763 3.36803 0.449593
 0 0 5
 -8.09017 3.09017 0
 0 0 5
 -8.09017 3.09017 0
 -9.31763 3.55902 0.75861
 0 0 5
 -8.09017 3.09017 0
 -9.56763 3.65451 0.913119
 0 0 5
 -8.09017 3.09017 0
 -9.81763 3.75 1.06763
 0 0 5
 -7.3541 2.80902 0.454915
 0 0 5
 -7.6041 2.90451 0.300407
 0 0 5
 -7.8541 3 0.145898
 0 0 5
 -8.09017 3.09017 0
 -8.91312 3.40451 0.50861
 0 0 5
 -8.09017 3.09017 0
 -9.16312 3.5 0.663119
 0 0 5
 -6.69959 2.55902 0.859424
 0 0 5
 -6.94959 2.65451 0.704915
 0 0 5
 -8.09017 3.09017 0
 -8.25861 3.15451 0.104102
 0 0 5
 -6.04508 2.30902 1.26393
 0 0 5
 -6.29508 2.40451 1.10942
 0 0 5
 -5.39058 2.05902 1.66844
 0 0 5
 -9.76334 9.64839 2.76623
 0 0 5
 -9.27047 9.16132 2.879
 0 0 5
 0 9.37939 2.33551
 0 0 5
 -2.99492 9.94113 -8.88178e-16
 -3.09965 10.2888 0.174858
 0 0 5
 -2.99492 9.94113 -8.88178e-16
 -3.03211 10.0646 0.0620943
 0 0 5
 -2.73904 9.09178 0.427188
 0 0 5
 -2.22309 7.37919 1.28856
 0 0 5
 -2.44729 8.12338 0.914255
 0 0 5
 -2.67149 8.86758 0.539953
 0 0 5
 -1.93135 6.41079 1.77562
 0 0 5
 -2.15555 7.15499 1.40132
 0 0 5
 -2.37975 7.89918 1.02702
 0 0 5
 -2.60395 8.64338 0.652717
 0 0 5
[...]
CELL_DATA 922
FIELD FieldData 2
LaunchID 1 922 int
 2
 2
 2
 2
 2
 2
 2
 2
 2
 2
 3
 3
 3
 3
 3
 3
 3
 3
 3
 3
 5
 5
 5
 5
 5
 5
 5
 5
 5
 5
 5
 5
 5
 5
 5
 7
 7
 7
 7
 7
 7
 7
 7
 7
 7
 7
 7
 7
 7
 7
 7
 7
 7
 7
 7
 7
 7
 17
 17
 17
 17
 17
 17
 17
 17
 17
 19
 19
 19
 19
 19
 19
 19
 19
 19
 24
 24
 24
 24
 24
 24
 24
 24
 24
 24
 24
 24
 24
 24
 24
 24
 24
 25
 25
 25
 25
 25
 25
 25
 25
 25
 25
 25
 25
 25
 25
 25
 25
 25
 26
 26
 26
 26
 26
 26
 26
 26
 26
 26
 26
 27
 27
 27
 27
 27
 27
 27
 27
 27
 27
 27
 28
 29
 29
 29
 29
 29
 29
 29
 29
 29
 29
 29
 30
 30
 30
 30
 30
 30
 30
 30
 30
 30
 30
 31
 31
 31
 31
 31
 31
 31
 31
 31
 31
 31
 31
 31
 34
 34
 34
 34
 34
 34
 34
 34
 34
 34
 34
 34
 34
 40
 40
 40
 40
 40
 40
 40
 40
 40
 40
 40
 40
 40
 40
 40
 40
 40
 40
 40
 40
 40
 40
 40
 40
 41
 41
 41
 41
 41
 41
 41
 41
 41
 41
 41
 41
 41
 41
 41
 41
 41
 41
 41
 41
 41
 41
 41
 41
 58
 58
 60
 62
 62
 62
 62
 62
 62
 62
 62
 62
 62
 67
 67
 67
 67
 67
 67
 67
 67
 67
 67
 71
 84
 84
 84
 84
 85
 86
 86
 86
 86
 86
 86
 86
 86
 86
 86
 86
 86
 86
 86
 86
 86
 86
 86
 86
 86
 87
 87
 87
 87
 87
 87
 87
 87
 87
 87
 87
 87
 87
 87
 87
 88
 88
 88
 88
 88
 88
 88
 88
 88
 88
 88
 88
 88
 88
 88
 88
 88
 88
 88
 88
 89
 90
 90
 90
 90
 91
 91
 91
 91
 91
 91
 91
 91
 91
 91
 91
 91
 91
 91
 91
 91
 91
 91
 91
 91
 91
 92
 92
 92
 92
 92
 92
 92
 92
 92
 92
 92
 92
 92
 92
 92
 92
 92
 92
 92
 92
 92
 92
 92
 92
 92
 92
 92
 92
 93
 93
 93
 93
 93
 93
 93
 93
 93
 93
 93
 93
 93
 93
 93
 93
 93
 93
 93
 93
 93
 93
 93
 93
 94
 94
 94
 94
 94
 94
 94
 94
 95
 95
 95
 95
 95
 95
 95
 95
 95
 95
 95
 95
 95
 95
 95
 95
 95
 95
 95
 95
 96
 96
 96
 96
 96
 96
 96
 96
 96
 96
 96
 96
 96
 96
 96
 96
 96
 96
 96
 96
 96
 97
 97
 97
 97
 97
 97
 97
 97
 97
 97
 98
 98
 98
 98
 99
 99
 99
 99
 99
 100
 100
 100
 100
 100
 100
 100
 100
 101
 101
 101
 101
 101
 102
 102
 102
 102
 103
 103
 103
 103
 103
 103
 103
 103
 104
 104
 104
 104
 104
 105
 105
 105
 105
 105
 105
 105
 105
 105
 105
 105
 105
 105
 105
 105
 105
 105
 105
 105
 105
 105
 106
 106
 106
 106
 106
 106
 106
 106
 106
 106
 107
 107
 107
 107
 107
 107
 107
 107
 107
 107
 107
 107
 107
 107
 107
 107
 107
 107
 107
 107
 107
 108
 108
 108
 108
 108
 109
 109
 109
 109
 109
 109
 109
 109
 110
 110
 110
 110
 110
 110
 110
 110
 110
 110
 110
 110
 110
 110
 110
 111
 111
 111
 111
 111
 111
 111
 111
 111
 111
 111
 111
 111
 111
 111
 111
 111
 111
 111
 111
 111
 111
 111
 111
 111
 111
 111
 111
 111
 111
 111
 111
 111
 112
 112
 112
 112
 112
 112
 112
 112
 112
 112
 112
 112
 112
 112
 112
 112
 112
 112
 112
 112
 112
 112
 112
 113
 113
 114
 114
 114
 114
 114
 114
 114
 114
 114
 114
 114
 114
 114
 114
 114
 114
 114
 114
 114
 114
 114
 114
 114
 114
 115
 115
 115
 115
 122
 122
 122
 122
 122
 122
 122
 122
 122
 122
 122
 122
 122
 122
 122
 126
 126
 126
 126
 149
 149
 149
 149
 150
 150
 150
 150
 150
 150
 150
 150
 151
 151
 151
 151
 151
 151
 151
 151
 152
 152
 152
 152
 153
 153
 153
 153
 153
 153
 153
 153
 153
 153
 153
 153
 153
 153
 153
 153
 153
 153
 153
 153
 154
 154
 154
 154
 154
 154
 154
 154
 154
 154
 154
 154
 154
 154
 154
 154
 154
 154
 154
 154
 154
 154
 155
 155
 155
 155
 155
 155
 155
 155
 155
 155
 155
 155
 155
 155
 155
 155
 155
 155
 155
 155
 156
 156
 156
 156
 156
 156
 156
 156
 156
 156
 156
 156
 156
 156
 156
 156
 156
 156
 156
 156
 156
 156
 156
 156
 156
 157
 157
 157
 157
 157
 157
 157
 157
 157
 157
 157
 157
 157
 157
 157
 157
 157
 157
 157
 157
 157
 157
 157
 157
 158
 158
 158
 158
 158
 158
 158
 158
 158
 158
 158
 158
 158
 158
 158
 158
 158
 158
 158
 158
 158
 158
 158
 158
 158
 158
 158
 158
 159
 159
 159
 159
 159
 159
 159
 159
 159
 159
 159
 159
 159
 159
 159
 159
 159
 159
 159
 159
 159
 159
 159
 159
 159
 159
 159
 159
 159
 159
 159
 159
 159
 160
 160
 160
 160
 160
 160
 160
 160
 160
 160
 160
 160
 160
 160
 160
 160
 160
 160
 160
 160
 160
 160
 160
 160
 161
 161
 161
 161
 161
 161
 161
 161
 161
 161
 161
 161
 161
 161
 161
 161
 161
 161
 161
 161
 161
 161
 161
 161
 161
 161
 161
 161
 161
ReceiverID 1 922 int
 109
 110
 111
 129
 130
 131
 149
 150
 151
 170
 250
 269
 270
 271
 289
 290
 291
 309
 310
 311
 178
 179
 197
 198
 199
 215
 216
 217
 218
 219
 237
 238
 239
 258
 259
 140
 160
 161
 162
 180
 181
 182
 183
 200
 201
 202
 203
 204
 205
 220
 221
 222
 223
 240
 241
 242
 260
 79
 98
 99
 117
 118
 119
 137
 138
 139
 297
 298
 299
 317
 318
 319
 338
 339
 359
 312
 332
 333
 352
 353
 355
 372
 373
 374
 375
 376
 391
 392
 393
 394
 395
 396
 308
 327
 328
 345
 347
 348
 364
 365
 366
 367
 368
 384
 385
 386
 387
 388
 389
 233
 234
 252
 253
 254
 255
 273
 274
 275
 294
 295
 134
 135
 153
 154
 155
 172
 173
 174
 175
 193
 194
 210
 125
 126
 145
 146
 147
 165
 166
 167
 168
 186
 187
 226
 227
 245
 246
 247
 248
 265
 266
 267
 285
 286
 281
 282
 283
 300
 301
 302
 303
 320
 321
 322
 340
 341
 360
 40
 60
 61
 80
 81
 82
 100
 101
 102
 103
 121
 122
 123
 3
 4
 5
 6
 7
 8
 9
 24
 25
 26
 27
 28
 29
 44
 45
 46
 47
 48
 65
 67
 68
 87
 88
 108
 11
 12
 13
 14
 15
 16
 17
 31
 32
 33
 34
 35
 36
 52
 53
 54
 55
 56
 72
 73
 75
 92
 93
 112
 19
 39
 219
 99
 119
 139
 157
 158
 159
 176
 177
 178
 179
 256
 257
 258
 259
 277
 278
 279
 299
 319
 339
 399
 374
 394
 395
 396
 392
 288
 289
 307
 308
 309
 310
 327
 328
 329
 330
 347
 348
 349
 350
 367
 368
 369
 370
 388
 389
 310
 330
 349
 350
 351
 368
 369
 370
 371
 372
 388
 389
 390
 391
 392
 291
 292
 310
 311
 312
 313
 330
 331
 332
 333
 350
 351
 352
 353
 370
 371
 372
 373
 391
 392
 388
 366
 384
 385
 386
 215
 216
 217
 218
 234
 235
 236
 237
 238
 239
 254
 255
 256
 257
 258
 259
 275
 276
 277
 278
 279
 254
 257
 258
 274
 275
 276
 277
 278
 279
 295
 296
 297
 298
 299
 315
 316
 317
 318
 319
 335
 336
 337
 338
 339
 357
 358
 359
 379
 272
 273
 274
 292
 293
 294
 295
 312
 313
 314
 315
 316
 332
 333
 334
 335
 336
 353
 354
 355
 356
 374
 375
 376
 251
 252
 271
 272
 273
 291
 292
 293
 314
 315
 334
 335
 336
 339
 355
 356
 357
 358
 359
 375
 376
 377
 378
 379
 396
 397
 398
 399
 155
 156
 157
 158
 159
 174
 175
 176
 177
 178
 179
 194
 195
 196
 197
 198
 199
 215
 216
 217
 218
 193
 194
 195
 212
 213
 214
 215
 233
 234
 235
 169
 170
 171
 190
 171
 172
 191
 192
 212
 131
 132
 133
 151
 152
 153
 171
 172
 212
 231
 232
 251
 252
 230
 249
 250
 251
 127
 128
 129
 147
 148
 149
 168
 169
 168
 169
 188
 189
 208
 202
 203
 204
 205
 221
 222
 223
 224
 225
 226
 241
 242
 243
 244
 245
 246
 261
 262
 263
 264
 265
 185
 186
 187
 205
 206
 207
 208
 225
 226
 227
 141
 142
 143
 144
 145
 161
 162
 163
 164
 165
 166
 181
 182
 183
 184
 185
 186
 202
 203
 204
 205
 208
 228
 229
 248
 249
 248
 249
 267
 268
 269
 287
 288
 289
 240
 241
 242
 243
 244
 260
 261
 262
 263
 280
 281
 300
 301
 320
 321
 242
 243
 246
 261
 262
 263
 264
 265
 266
 280
 281
 282
 283
 284
 285
 300
 301
 302
 303
 304
 305
 320
 321
 322
 323
 324
 325
 340
 341
 342
 343
 360
 361
 305
 306
 321
 324
 325
 326
 340
 341
 342
 343
 344
 345
 360
 361
 362
 363
 364
 365
 380
 381
 382
 383
 384
 380
 381
 266
 267
 268
 285
 286
 287
 288
 304
 305
 306
 307
 308
 324
 325
 326
 327
 328
 344
 345
 346
 347
 364
 365
 366
 180
 200
 201
 220
 80
 81
 100
 101
 120
 121
 140
 141
 142
 143
 160
 161
 162
 163
 164
 0
 1
 20
 21
 11
 12
 13
 32
 14
 15
 16
 17
 34
 35
 36
 54
 3
 4
 5
 6
 24
 25
 26
 46
 7
 8
 9
 28
 31
 32
 50
 51
 52
 53
 70
 71
 72
 73
 90
 91
 92
 93
 110
 111
 112
 113
 131
 132
 7
 8
 9
 10
 11
 12
 13
 28
 29
 30
 31
 32
 48
 49
 50
 51
 52
 69
 70
 71
 90
 110
 28
 29
 47
 48
 49
 50
 67
 68
 69
 70
 87
 88
 89
 90
 107
 108
 109
 110
 128
 129
 15
 16
 17
 18
 19
 36
 37
 38
 39
 55
 56
 57
 58
 59
 75
 76
 77
 78
 79
 94
 95
 96
 99
 114
 115
 54
 55
 56
 73
 74
 75
 76
 92
 93
 94
 95
 96
 112
 113
 114
 115
 116
 132
 133
 134
 135
 152
 153
 154
 59
 77
 78
 79
 95
 96
 97
 98
 99
 115
 116
 117
 118
 119
 135
 136
 137
 138
 139
 154
 155
 156
 157
 158
 159
 174
 177
 178
 40
 41
 60
 61
 62
 63
 80
 81
 82
 83
 84
 85
 100
 101
 102
 103
 104
 105
 120
 121
 122
 123
 124
 125
 141
 142
 143
 144
 145
 146
 162
 163
 166
 44
 45
 46
 64
 65
 66
 67
 84
 85
 86
 87
 88
 104
 105
 106
 107
 108
 125
 126
 127
 128
 146
 147
 148
 0
 1
 2
 3
 4
 5
 20
 21
 22
 23
 24
 40
 41
 42
 43
 44
 45
 60
 61
 62
 63
 64
 65
 81
 84
 85
 86
 105
 106
