# vtk DataFile Version 2.0
Ray Path Visualization
ASCII
DATASET POLYDATA

POINTS 252 float
 -10 0 1
 -16.5347 -4.03868 1
 -19.2904 -5.74178 1
 -16.8995 -7.21941 1
 -10 0 1
 -16.5347 -4.03868 1
 -19.2904 -5.74178 1
 -17.3467 -6.94301 1
 -10 0 1
 -16.5347 -4.03868 1
 -19.2904 -5.74178 1
 -17.794 -6.66662 1
 -10 0 1
 -16.5347 -4.03868 1
 -18.4721 -5.23607 1
 -10 0 1
 -16.5347 -4.03868 1
 -18.0249 -4.95967 1
 -10 0 1
 -16.5347 -4.03868 1
 -17.5777 -4.68328 1
 -10 0 1
 -13.2361 -5.23607 3
 -15.5873 -9.0405 1.54684
 -17.8766 -12.7447 0.131966
 -10 0 1
 -13.2361 -5.23607 3
 -15.5873 -9.0405 1.54684
 -17.4721 -12.0902 0.381966
 -10 0 1
 -13.2361 -5.23607 3
 -15.5873 -9.0405 1.54684
 -17.0676 -11.4357 0.631966
 -10 0 1
 -13.2361 -5.23607 3
 -15.5873 -9.0405 1.54684
 -16.6631 -10.7812 0.881966
 -10 0 1
 -13.2361 -5.23607 3
 -15.5873 -9.0405 1.54684
 -16.2586 -10.1266 1.13197
 -10 0 1
 -13.2361 -1.23607 3
 -16.5347 -2.49604 0.961324
 -17.8541 -3 0.145898
 -10 0 1
 -13.2361 -1.23607 3
 -16.5347 -2.49604 0.961324
 -17.6041 -2.90451 0.300407
 -10 0 1
 -13.2361 -1.23607 3
 -16.5347 -2.49604 0.961324
 -17.3541 -2.80902 0.454915
 -10 0 1
 -13.2361 -1.23607 3
 -16.5347 -2.49604 0.961324
 -17.1041 -2.71353 0.609424
 -10 0 1
 -15.3288 0 1
 -19.2904 0 1
 -18 0 1
 -10 0 1
 -15.3288 0 1
 -18 0 1
 -10 0 1
 9.06907 -5.41712 1
 -5.61595 -9.58883 1
 -15.869 -12.5015 1
 -10 0 1
 9.06907 -5.41712 1
 -5.61595 -9.58883 1
 -15.6061 -12.4268 1
 -10 0 1
 -16.5347 -6.45778 2.49509
 -18.7416 -8.63867 3
 -19.7517 -9.63692 2.76889
 -10 0 1
 -16.5347 -6.45778 2.49509
 -18.7416 -8.63867 3
 -19.2647 -9.15559 2.88032
 -10 0 1
 -16.5347 -6.45778 2.49509
 -18.7416 -8.63867 3
 -18.7776 -8.67426 2.99176
 -10 0 1
 -15.5873 -9.0405 1
 -19.8138 -15.879 1
 -10 0 1
 -15.5873 -9.0405 1
 -19.3666 -15.1554 1
 -10 0 1
 -15.5873 -9.0405 1
 -18.9193 -14.4318 1
 -10 0 1
 -15.5873 -9.0405 1
 -18.4721 -13.7082 1
 -10 0 1
 -15.5873 -9.0405 1
 -18.0249 -12.9846 1
 -10 0 1
 -15.5873 -9.0405 1
 -17.5777 -12.261 1
 -10 0 1
 -15.5873 -9.0405 1
 -17.1305 -11.5374 1
 -10 0 1
 -15.5873 -9.0405 1
 -16.6833 -10.8138 1
 -10 0 1
 -15.5873 -9.0405 1
 -16.5347 -7.50761 1
 -17.6139 -5.7614 1
 -10 0 1
 -15.5873 -9.0405 1
 -16.5347 -7.50761 1
 -18.0611 -5.03779 1
 -10 0 1
 -15.5873 -9.0405 1
 -16.5347 -7.50761 1
 -18.5084 -4.31418 1
 -10 0 1
 -15.5873 -9.0405 1
 -16.5347 -7.50761 1
 -18.9556 -3.59058 1
 -10 0 1
 -14.3708 -4.31934 1.11022e-16
 -16.5347 -6.45778 0.495085
 -20.0133 -9.89538 1.29095
 -10 0 1
 -14.3708 -4.31934 1.11022e-16
 -16.5347 -6.45778 0.495085
 -19.5262 -9.41405 1.17951
 -10 0 1
 -14.3708 -4.31934 1.11022e-16
 -16.5347 -6.45778 0.495085
 -19.0391 -8.93272 1.06808
 -10 0 1
 -14.3708 -4.31934 1.11022e-16
 -16.5347 -6.45778 0.495085
 -18.5521 -8.45138 0.95664
 -10 0 1
 -14.3708 -4.31934 1.11022e-16
 -16.5347 -6.45778 0.495085
 -18.065 -7.97005 0.845203
 -10 0 1
 -14.3708 -4.31934 1.11022e-16
 -16.5347 -6.45778 0.495085
 -17.5779 -7.48872 0.733767
 -10 0 1
 -14.3708 -4.31934 1.11022e-16
 -16.5347 -6.45778 0.495085
 -17.0909 -7.00739 0.622331
 -10 0 1
 -14.3708 -4.31934 1.11022e-16
 -16.5347 -6.45778 0.495085
 -16.6038 -6.52606 0.510894
 -10 0 1
 -16.5347 -3.28671 2.96868
 -16.6387 -3.33899 3
 -19.0962 -4.57503 2.25964
 -10 0 1
 -16.5347 -3.28671 2.96868
 -16.6387 -3.33899 3
 -18.7219 -4.38677 2.3724
 -10 0 1
 -16.5347 -3.28671 2.96868
 -16.6387 -3.33899 3
 -18.3476 -4.19851 2.48516
 -10 0 1
 -16.5347 -3.28671 2.96868
 -16.6387 -3.33899 3
 -17.9733 -4.01025 2.59793
 -10 0 1
 -16.5347 -3.28671 2.96868
 -16.6387 -3.33899 3
 -17.599 -3.82199 2.71069
 -10 0 1
 -13.2361 -2.76393 3
 -16.5347 -5.58131 0.961324
 -17.7912 -6.65451 0.184752
 -10 0 1
 -13.2361 -2.76393 3
 -16.5347 -5.58131 0.961324
 -17.3867 -6.30902 0.434752
 -10 0 1
 -13.2361 -2.76393 3
 -16.5347 -5.58131 0.961324
 -16.9822 -5.96353 0.684752
 -10 0 1
 -13.2361 -2.76393 3
 -16.5347 -5.58131 0.961324
 -16.5777 -5.61803 0.934752
 -10 0 1
 -13.2361 0 3
 -15.3288 0 1.70662
 -17.5777 0 0.316718
 -10 0 1
 -15.3288 -1.5138 1
 -15.5476 -1.57596 1
 -17.4425 -1.03765 1
 -10 0 1
 -15.3288 -1.5138 1
 -15.5476 -1.57596 1
 -17.7054 -0.962973 1
 -10 0 1
 -15.3288 -1.5138 1
 -15.5476 -1.57596 1
 -17.9683 -0.888298 1
 -10 0 1
 -15.3288 -0.910268 2.47284
 -17.2361 -1.23607 3
 -18.6996 -1.48607 2.59549
 -10 0 1
 -15.3288 -0.910268 2.47284
 -17.2361 -1.23607 3
 -18.5451 -1.45967 2.6382
 -10 0 1
 -15.3288 -0.910268 2.47284
 -17.2361 -1.23607 3
 -18.3906 -1.43328 2.6809
 -10 0 1
 -13.3193 -1.6695 0
 -16.5347 -3.28671 0.968682
 -18.6478 -4.3495 1.60528
 -10 0 1
 -13.3193 -1.6695 0
 -16.5347 -3.28671 0.968682
 -18.2735 -4.16124 1.49251
 -10 0 1
 -13.3193 -1.6695 0
 -16.5347 -3.28671 0.968682
 -17.8992 -3.97298 1.37975
 -10 0 1
 -13.3193 -1.6695 0
 -16.5347 -3.28671 0.968682
 -17.5249 -3.78472 1.26698
 -10 0 1
 -13.3193 -1.6695 0
 -16.5347 -3.28671 0.968682
 -17.1506 -3.59646 1.15422
 -10 0 1
 -13.618 -0.618034 1.11022e-16
 -15.3288 -0.910268 0.472844
 -18.1996 -1.40066 1.26631
 -10 0 1
 -13.618 -0.618034 1.11022e-16
 -15.3288 -0.910268 0.472844
 -18.0451 -1.37426 1.22361
 -10 0 1
 -13.618 -0.618034 1.11022e-16
 -15.3288 -0.910268 0.472844
 -17.8906 -1.34787 1.1809
LINES 66 318
 4 0 1 2 3 
 4 4 5 6 7 
 4 8 9 10 11 
 3 12 13 14 
 3 15 16 17 
 3 18 19 20 
 4 21 22 23 24 
 4 25 26 27 28 
 4 29 30 31 32 
 4 33 34 35 36 
 4 37 38 39 40 
 4 41 42 43 44 
 4 45 46 47 48 
 4 49 50 51 52 
 4 53 54 55 56 
 4 57 58 59 60 
 3 61 62 63 
 4 64 65 66 67 
 4 68 69 70 71 
 4 72 73 74 75 
 4 76 77 78 79 
 4 80 81 82 83 
 3 84 85 86 
 3 87 88 89 
 3 90 91 92 
 3 93 94 95 
 3 96 97 98 
 3 99 100 101 
 3 102 103 104 
 3 105 106 107 
 4 108 109 110 111 
 4 112 113 114 115 
 4 116 117 118 119 
 4 120 121 122 123 
 4 124 125 126 127 
 4 128 129 130 131 
 4 132 133 134 135 
 4 136 137 138 139 
 4 140 141 142 143 
 4 144 145 146 147 
 4 148 149 150 151 
 4 152 153 154 155 
 4 156 157 158 159 
 4 160 161 162 163 
 4 164 165 166 167 
 4 168 169 170 171 
 4 172 173 174 175 
 4 176 177 178 179 
 4 180 181 182 183 
 4 184 185 186 187 
 4 188 189 190 191 
 4 192 193 194 195 
 4 196 197 198 199 
 4 200 201 202 203 
 4 204 205 206 207 
 4 208 209 210 211 
 4 212 213 214 215 
 4 216 217 218 219 
 4 220 221 222 223 
 4 224 225 226 227 
 4 228 229 230 231 
 4 232 233 234 235 
 4 236 237 238 239 
 4 240 241 242 243 
 4 244 245 246 247 
 4 248 249 250 251 
CELL_DATA 66
FIELD FieldData 2
LaunchID 1 66 int
 11
 11
 11
 11
 11
 11
 35
 35
 35
 35
 35
 36
 36
 36
 36
 39
 39
 81
 81
 124
 124
 124
 125
 125
 125
 125
 125
 125
 125
 125
 125
 125
 125
 125
 126
 126
 126
 126
 126
 126
 126
 126
 129
 129
 129
 129
 129
 130
 130
 130
 130
 146
 147
 147
 147
 148
 148
 148
 151
 151
 151
 151
 151
 152
 152
 152
ReceiverID 1 66 int
 31
 32
 33
 34
 35
 36
 27
 28
 29
 30
 31
 36
 37
 38
 39
 38
 39
 35
 36
 29
 30
 31
 23
 24
 25
 26
 27
 28
 29
 30
 34
 35
 36
 37
 28
 29
 30
 31
 32
 33
 34
 35
 34
 35
 36
 37
 38
 33
 34
 35
 36
 39
 37
 38
 39
 37
 38
 39
 34
 35
 36
 37
 38
 37
 38
 39
