# vtk DataFile Version 2.0
Ray Path Visualization
ASCII
DATASET POLYDATA

POINTS 2262 float
 0 0 5
 -3.75 -0.625 0
 -6 -1 3
 0 0 5
 -3.75 0 0
 -6 0 3
 0 0 5
 -3.75 0.625 0
 -6 1 3
 0 0 5
 -3.125 -0.625 0
 -5 -1 3
 0 0 5
 -3.125 0 0
 -5 0 3
 0 0 5
 -3.125 0.625 0
 -5 1 3
 0 0 5
 -2.5 -0.625 0
 -4 -1 3
 0 0 5
 -2.5 0 0
 -4 0 3
 0 0 5
 -2.5 0.625 0
 -4 1 3
 0 0 5
 -1 0 3
 0 0 5
 1 0 3
 0 0 5
 2.5 -0.625 0
 4 -1 3
 0 0 5
 2.5 0 0
 4 0 3
 0 0 5
 2.5 0.625 0
 4 1 3
 0 0 5
 3.125 -0.625 0
 5 -1 3
 0 0 5
 3.125 0 0
 5 0 3
 0 0 5
 3.125 0.625 0
 5 1 3
 0 0 5
 3.75 -0.625 0
 6 -1 3
 0 0 5
 3.75 0 0
 6 0 3
 0 0 5
 3.75 0.625 0
 6 1 3
 0 0 5
 -1.25 6.25 0
 -2 10 3
 0 0 5
 -0.625 5.625 0
 -1 9 3
 0 0 5
 -0.625 6.25 0
 -1 10 3
 0 0 5
 0 3 3
 0 0 5
 0 4 3
 0 0 5
 0 5.625 0
 0 9 3
 0 0 5
 0 6.25 0
 0 10 3
 0 0 5
 0.625 5.625 0
 1 9 3
 0 0 5
 0.625 6.25 0
 1 10 3
 0 0 5
 1.25 6.25 0
 2 10 3
 0 0 5
 -1.25 -6.25 0
 -2 -10 3
 0 0 5
 -0.625 -6.25 0
 -1 -10 3
 0 0 5
 -0.625 -5.625 0
 -1 -9 3
 0 0 5
 0 -6.25 0
 0 -10 3
 0 0 5
 0 -5.625 0
 0 -9 3
 0 0 5
 0 -4 3
 0 0 5
 0 -3 3
 0 0 5
 0.625 -6.25 0
 1 -10 3
 0 0 5
 0.625 -5.625 0
 1 -9 3
 0 0 5
 1.25 -6.25 0
 2 -10 3
 0 0 5
 -5 7 3
 0 0 5
 -5 8 3
 0 0 5
 -5 9 3
 0 0 5
 -4 5 3
 0 0 5
 -4 6 3
 0 0 5
 -4 7 3
 0 0 5
 -4 8 3
 0 0 5
 -3 4 3
 0 0 5
 -3 5 3
 0 0 5
 -3 6 3
 0 0 5
 -2 4 3
 0 0 5
 2 4 3
 0 0 5
 3 4 3
 0 0 5
 3 5 3
 0 0 5
 3 6 3
 0 0 5
 4 5 3
 0 0 5
 4 6 3
 0 0 5
 4 7 3
 0 0 5
 4 8 3
 0 0 5
 5 7 3
 0 0 5
 5 8 3
 0 0 5
 5 9 3
 0 0 5
 3 1 3
 0 0 5
 4 1 3
 0 0 5
 4 2 3
 0 0 5
 5 1.875 0
 8 3 3
 0 0 5
 5 2.5 0
 8 4 3
 0 0 5
 5.625 1.25 0
 9 2 3
 0 0 5
 5.625 1.875 0
 9 3 3
 0 0 5
 5.625 2.5 0
 9 4 3
 0 0 5
 5.625 3.125 0
 9 5 3
 0 0 5
 5.625 3.75 0
 9 6 3
 0 0 5
 6.25 1.25 0
 10 2 3
 0 0 5
 6.25 1.875 0
 10 3 3
 0 0 5
 6.25 2.5 0
 10 4 3
 0 0 5
 6.25 3.125 0
 10 5 3
 0 0 5
 6.25 3.75 0
 10 6 3
 0 0 5
 3 -1 3
 0 0 5
 4 -2 3
 0 0 5
 4 -1 3
 0 0 5
 5 -2.5 0
 8 -4 3
 0 0 5
 5 -1.875 0
 8 -3 3
 0 0 5
 5.625 -3.75 0
 9 -6 3
 0 0 5
 5.625 -3.125 0
 9 -5 3
 0 0 5
 5.625 -2.5 0
 9 -4 3
 0 0 5
 5.625 -1.875 0
 9 -3 3
 0 0 5
 5.625 -1.25 0
 9 -2 3
 0 0 5
 6.25 -3.75 0
 10 -6 3
 0 0 5
 6.25 -3.125 0
 10 -5 3
 0 0 5
 6.25 -2.5 0
 10 -4 3
 0 0 5
 6.25 -1.875 0
 10 -3 3
 0 0 5
 6.25 -1.25 0
 10 -2 3
 0 0 5
 1 1 3
 0 0 5
 1.25 2.5 0
 2 4 3
 0 0 5
 1.25 3.125 0
 2 5 3
 0 0 5
 1.25 3.75 0
 2 6 3
 0 0 5
 1.875 2.5 0
 3 4 3
 0 0 5
 1.875 3.125 0
 3 5 3
 0 0 5
 1.875 3.75 0
 3 6 3
 0 0 5
 1.875 4.375 0
 3 7 3
 0 0 5
 2.5 2.5 0
 4 4 3
 0 0 5
 2.5 3.125 0
 4 5 3
 0 0 5
 2.5 3.75 0
 4 6 3
 0 0 5
 2.5 4.375 0
 4 7 3
 0 0 5
 -2.5 2.5 0
 -4 4 3
 0 0 5
 -2.5 3.125 0
 -4 5 3
 0 0 5
 -2.5 3.75 0
 -4 6 3
 0 0 5
 -2.5 4.375 0
 -4 7 3
 0 0 5
 -1.875 2.5 0
 -3 4 3
 0 0 5
 -1.875 3.125 0
 -3 5 3
 0 0 5
 -1.875 3.75 0
 -3 6 3
 0 0 5
 -1.875 4.375 0
 -3 7 3
 0 0 5
 -1.25 2.5 0
 -2 4 3
 0 0 5
 -1.25 3.125 0
 -2 5 3
 0 0 5
 -1.25 3.75 0
 -2 6 3
 0 0 5
 -1 1 3
 0 0 5
 0 -0.625 0
 0 -1 3
 0 0 5
 0 0 3
 0 0 5
 0.625 0 0
 1 0 3
 0 0 5
 -2.5 -4.375 0
 -4 -7 3
 0 0 5
 -2.5 -3.75 0
 -4 -6 3
 0 0 5
 -2.5 -3.125 0
 -4 -5 3
 0 0 5
 -2.5 -2.5 0
 -4 -4 3
 0 0 5
 -1.875 -4.375 0
 -3 -7 3
 0 0 5
 -1.875 -3.75 0
 -3 -6 3
 0 0 5
 -1.875 -3.125 0
 -3 -5 3
 0 0 5
 -1.875 -2.5 0
 -3 -4 3
 0 0 5
 -1.25 -3.75 0
 -2 -6 3
 0 0 5
 -1.25 -3.125 0
 -2 -5 3
 0 0 5
 -1.25 -2.5 0
 -2 -4 3
 0 0 5
 -1 -1 3
 0 0 5
 1 -1 3
 0 0 5
 1.25 -3.75 0
 2 -6 3
 0 0 5
 1.25 -3.125 0
 2 -5 3
 0 0 5
 1.25 -2.5 0
 2 -4 3
 0 0 5
 1.875 -4.375 0
 3 -7 3
 0 0 5
 1.875 -3.75 0
 3 -6 3
 0 0 5
 1.875 -3.125 0
 3 -5 3
 0 0 5
 1.875 -2.5 0
 3 -4 3
 0 0 5
 2.5 -4.375 0
 4 -7 3
 0 0 5
 2.5 -3.75 0
 4 -6 3
 0 0 5
 2.5 -3.125 0
 4 -5 3
 0 0 5
 2.5 -2.5 0
 4 -4 3
 0 0 5
 2 -4 3
 0 0 5
 3 -6 3
 0 0 5
 3 -5 3
 0 0 5
 3 -4 3
 0 0 5
 4 -8 3
 0 0 5
 4 -7 3
 0 0 5
 4 -6 3
 0 0 5
 4 -5 3
 0 0 5
 5 -9 3
 0 0 5
 5 -8 3
 0 0 5
 5 -7 3
 0 0 5
 -5 -9 3
 0 0 5
 -5 -8 3
 0 0 5
 -5 -7 3
 0 0 5
 -4 -8 3
 0 0 5
 -4 -7 3
 0 0 5
 -4 -6 3
 0 0 5
 -4 -5 3
 0 0 5
 -3 -6 3
 0 0 5
 -3 -5 3
 0 0 5
 -3 -4 3
 0 0 5
 -2 -4 3
 0 0 5
 -6.25 -3.75 0
 -10 -6 3
 0 0 5
 -6.25 -3.125 0
 -10 -5 3
 0 0 5
 -6.25 -2.5 0
 -10 -4 3
 0 0 5
 -6.25 -1.875 0
 -10 -3 3
 0 0 5
 -6.25 -1.25 0
 -10 -2 3
 0 0 5
 -5.625 -3.75 0
 -9 -6 3
 0 0 5
 -5.625 -3.125 0
 -9 -5 3
 0 0 5
 -5.625 -2.5 0
 -9 -4 3
 0 0 5
 -5.625 -1.875 0
 -9 -3 3
 0 0 5
 -5.625 -1.25 0
 -9 -2 3
 0 0 5
 -5 -2.5 0
 -8 -4 3
 0 0 5
 -5 -1.875 0
 -8 -3 3
 0 0 5
 -4 -2 3
 0 0 5
 -4 -1 3
 0 0 5
 -3 -1 3
 0 0 5
 -6.25 1.25 0
 -10 2 3
 0 0 5
 -6.25 1.875 0
 -10 3 3
 0 0 5
 -6.25 2.5 0
 -10 4 3
 0 0 5
 -6.25 3.125 0
 -10 5 3
 0 0 5
 -6.25 3.75 0
 -10 6 3
 0 0 5
 -5.625 1.25 0
 -9 2 3
 0 0 5
 -5.625 1.875 0
 -9 3 3
 0 0 5
 -5.625 2.5 0
 -9 4 3
 0 0 5
 -5.625 3.125 0
 -9 5 3
 0 0 5
 -5.625 3.75 0
 -9 6 3
 0 0 5
 -5 1.875 0
 -8 3 3
 0 0 5
 -5 2.5 0
 -8 4 3
 0 0 5
 -4 1 3
 0 0 5
 -4 2 3
 0 0 5
 -3 1 3
 0 0 5
 -10 8 3
 0 0 5
 -10 9 3
 0 0 5
 -10 10 3
 0 0 5
 -9 7 3
 0 0 5
 -9 8 3
 0 0 5
 -9 9 3
 0 0 5
 -9 10 3
 0 0 5
 -8 6 3
 0 0 5
 -8 7 3
 0 0 5
 -8 8 3
 0 0 5
 -8 9 3
 0 0 5
 -8 10 3
 0 0 5
 -7 6 3
 0 0 5
 -7 7 3
 0 0 5
 -7 8 3
 0 0 5
 -7 9 3
 0 0 5
 -6 5 3
 0 0 5
 -6 6 3
 0 0 5
 -6 7 3
 0 0 5
 -5 5 3
 0 0 5
 -5 6 3
 0 0 5
 -1 7 3
 0 0 5
 -1 8 3
 0 0 5
 -1 9 3
 0 0 5
 -1 10 3
 0 0 5
 0 5 3
 0 0 5
 0 6 3
 0 0 5
 0 7 3
 0 0 5
 0 8 3
 0 0 5
 0 9 3
 0 0 5
 0 10 3
 0 0 5
 1 7 3
 0 0 5
 1 8 3
 0 0 5
 1 9 3
 0 0 5
 1 10 3
 0 0 5
 -4 10 3
 0 0 5
 -3 8 3
 0 0 5
 -3 9 3
 0 0 5
 -3 10 3
 0 0 5
 -2 6 3
 0 0 5
 -2 7 3
 0 0 5
 -2 8 3
 0 0 5
 -2 9 3
 0 0 5
 -2 10 3
 0 0 5
 -3.125 6.25 0
 -5 10 3
 0 0 5
 -2.5 6.25 0
 -4 10 3
 0 0 5
 -1.875 6.25 0
 -3 10 3
 0 0 5
 -2 5 3
 0 0 5
 -1 3 3
 0 0 5
 -1 4 3
 0 0 5
 -1 5 3
 0 0 5
 1 3 3
 0 0 5
 1 4 3
 0 0 5
 1 5 3
 0 0 5
 2 5 3
 0 0 5
 1.875 6.25 0
 3 10 3
 0 0 5
 2.5 6.25 0
 4 10 3
 0 0 5
 3.125 6.25 0
 5 10 3
 0 0 5
 2 6 3
 0 0 5
 2 7 3
 0 0 5
 2 8 3
 0 0 5
 2 9 3
 0 0 5
 2 10 3
 0 0 5
 3 8 3
 0 0 5
 3 9 3
 0 0 5
 3 10 3
 0 0 5
 4 10 3
 0 0 5
 5 5 3
 0 0 5
 5 6 3
 0 0 5
 6 5 3
 0 0 5
 6 6 3
 0 0 5
 6 7 3
 0 0 5
 7 6 3
 0 0 5
 7 7 3
 0 0 5
 7 8 3
 0 0 5
 7 9 3
 0 0 5
 8 6 3
 0 0 5
 8 7 3
 0 0 5
 8 8 3
 0 0 5
 8 9 3
 0 0 5
 8 10 3
 0 0 5
 9 7 3
 0 0 5
 9 8 3
 0 0 5
 9 9 3
 0 0 5
 9 10 3
 0 0 5
 10 8 3
 0 0 5
 10 9 3
 0 0 5
 10 10 3
 0 0 5
 5 2 3
 0 0 5
 5 3 3
 0 0 5
 6 2 3
 0 0 5
 6 3 3
 0 0 5
 6 4 3
 0 0 5
 7 3 3
 0 0 5
 7 4 3
 0 0 5
 8 3 3
 0 0 5
 8 4 3
 0 0 5
 8 5 3
 0 0 5
 9 4 3
 0 0 5
 9 5 3
 0 0 5
 10 4 3
 0 0 5
 10 5 3
 0 0 5
 10 6 3
 0 0 5
 5 1 3
 0 0 5
 6 1 3
 0 0 5
 7 1 3
 0 0 5
 7 2 3
 0 0 5
 8 1 3
 0 0 5
 8 2 3
 0 0 5
 9 1 3
 0 0 5
 9 2 3
 0 0 5
 10 1 3
 0 0 5
 10 2 3
 0 0 5
 2 0 3
 0 0 5
 3.75 -1.875 0
 6 -3 3
 0 0 5
 3.75 -1.25 0
 6 -2 3
 0 0 5
 4.375 -1.875 0
 7 -3 3
 0 0 5
 4.375 -1.25 0
 7 -2 3
 0 0 5
 4.375 -0.625 0
 7 -1 3
 0 0 5
 4.375 0 0
 7 0 3
 0 0 5
 5 -1.25 0
 8 -2 3
 0 0 5
 5 -0.625 0
 8 -1 3
 0 0 5
 5 0 0
 8 0 3
 0 0 5
 5.625 -0.625 0
 9 -1 3
 0 0 5
 5.625 0 0
 9 0 3
 0 0 5
 6.25 -0.625 0
 10 -1 3
 0 0 5
 3 0 3
 0 0 5
 4 0 3
 0 0 5
 5.625 0.625 0
 9 1 3
 0 0 5
 6.25 0 0
 10 0 3
 0 0 5
 6.25 0.625 0
 10 1 3
 0 0 5
 3.75 1.25 0
 6 2 3
 0 0 5
 3.75 1.875 0
 6 3 3
 0 0 5
 4.375 0.625 0
 7 1 3
 0 0 5
 4.375 1.25 0
 7 2 3
 0 0 5
 4.375 1.875 0
 7 3 3
 0 0 5
 5 0.625 0
 8 1 3
 0 0 5
 5 1.25 0
 8 2 3
 0 0 5
 5 -1 3
 0 0 5
 6 -1 3
 0 0 5
 7 -2 3
 0 0 5
 7 -1 3
 0 0 5
 8 -2 3
 0 0 5
 8 -1 3
 0 0 5
 9 -2 3
 0 0 5
 9 -1 3
 0 0 5
 10 -2 3
 0 0 5
 10 -1 3
 0 0 5
 5 -3 3
 0 0 5
 5 -2 3
 0 0 5
 6 -4 3
 0 0 5
 6 -3 3
 0 0 5
 6 -2 3
 0 0 5
 7 -4 3
 0 0 5
 7 -3 3
 0 0 5
 8 -5 3
 0 0 5
 8 -4 3
 0 0 5
 8 -3 3
 0 0 5
 9 -5 3
 0 0 5
 9 -4 3
 0 0 5
 10 -6 3
 0 0 5
 10 -5 3
 0 0 5
 10 -4 3
 0 0 5
 0 2 3
 0 0 5
 0 4.375 0
 0 7 3
 0 0 5
 0 5 0
 0 8 3
 0 0 5
 0.625 3.75 0
 1 6 3
 0 0 5
 0.625 4.375 0
 1 7 3
 0 0 5
 0.625 5 0
 1 8 3
 0 0 5
 1.25 4.375 0
 2 7 3
 0 0 5
 1.25 5 0
 2 8 3
 0 0 5
 1.25 5.625 0
 2 9 3
 0 0 5
 1.875 5 0
 3 8 3
 0 0 5
 1.875 5.625 0
 3 9 3
 0 0 5
 2.5 5 0
 4 8 3
 0 0 5
 2.5 5.625 0
 4 9 3
 0 0 5
 1 2 3
 0 0 5
 2 3 3
 0 0 5
 3.125 3.75 0
 5 6 3
 0 0 5
 3.125 4.375 0
 5 7 3
 0 0 5
 3.125 5 0
 5 8 3
 0 0 5
 3.125 5.625 0
 5 9 3
 0 0 5
 3.75 4.375 0
 6 7 3
 0 0 5
 3.75 5 0
 6 8 3
 0 0 5
 3.75 5.625 0
 6 9 3
 0 0 5
 3.75 6.25 0
 6 10 3
 0 0 5
 4.375 4.375 0
 7 7 3
 0 0 5
 4.375 5 0
 7 8 3
 0 0 5
 4.375 5.625 0
 7 9 3
 0 0 5
 4.375 6.25 0
 7 10 3
 0 0 5
 5 5 0
 8 8 3
 0 0 5
 5 5.625 0
 8 9 3
 0 0 5
 5 6.25 0
 8 10 3
 0 0 5
 5.625 6.25 0
 9 10 3
 0 0 5
 2 1 3
 0 0 5
 3.125 1.875 0
 5 3 3
 0 0 5
 3.125 2.5 0
 5 4 3
 0 0 5
 3.125 3.125 0
 5 5 3
 0 0 5
 3.75 2.5 0
 6 4 3
 0 0 5
 3.75 3.125 0
 6 5 3
 0 0 5
 3.75 3.75 0
 6 6 3
 0 0 5
 4.375 2.5 0
 7 4 3
 0 0 5
 4.375 3.125 0
 7 5 3
 0 0 5
 4.375 3.75 0
 7 6 3
 0 0 5
 4.375 4.375 0
 7 7 3
 0 0 5
 5 3.125 0
 8 5 3
 0 0 5
 5 3.75 0
 8 6 3
 0 0 5
 5 4.375 0
 8 7 3
 0 0 5
 5.625 4.375 0
 9 7 3
 0 0 5
 1.875 1.25 0
 3 2 3
 0 0 5
 1.875 1.875 0
 3 3 3
 0 0 5
 2.5 1.25 0
 4 2 3
 0 0 5
 2.5 1.875 0
 4 3 3
 0 0 5
 2.5 2.5 0
 4 4 3
 0 0 5
 3.125 1.25 0
 5 2 3
 0 0 5
 3 2 3
 0 0 5
 3 3 3
 0 0 5
 4 3 3
 0 0 5
 4 4 3
 0 0 5
 5 5 0
 8 8 3
 0 0 5
 5.625 5 0
 9 8 3
 0 0 5
 5.625 5.625 0
 9 9 3
 0 0 5
 6.25 4.375 0
 10 7 3
 0 0 5
 6.25 5 0
 10 8 3
 0 0 5
 6.25 5.625 0
 10 9 3
 0 0 5
 6.25 6.25 0
 10 10 3
 0 0 5
 -2.5 5 0
 -4 8 3
 0 0 5
 -2.5 5.625 0
 -4 9 3
 0 0 5
 -1.875 5 0
 -3 8 3
 0 0 5
 -1.875 5.625 0
 -3 9 3
 0 0 5
 -1.25 4.375 0
 -2 7 3
 0 0 5
 -1.25 5 0
 -2 8 3
 0 0 5
 -1.25 5.625 0
 -2 9 3
 0 0 5
 -0.625 3.75 0
 -1 6 3
 0 0 5
 -0.625 4.375 0
 -1 7 3
 0 0 5
 -0.625 5 0
 -1 8 3
 0 0 5
 -0.625 2.5 0
 -1 4 3
 0 0 5
 -0.625 3.125 0
 -1 5 3
 0 0 5
 0 1 3
 0 0 5
 0 2.5 0
 0 4 3
 0 0 5
 0 3.125 0
 0 5 3
 0 0 5
 0 3.75 0
 0 6 3
 0 0 5
 0.625 2.5 0
 1 4 3
 0 0 5
 0.625 3.125 0
 1 5 3
 0 0 5
 -1.875 -0.625 0
 -3 -1 3
 0 0 5
 -1.875 0 0
 -3 0 3
 0 0 5
 -1.875 0.625 0
 -3 1 3
 0 0 5
 -1.25 -0.625 0
 -2 -1 3
 0 0 5
 -1.25 0 0
 -2 0 3
 0 0 5
 -1.25 0.625 0
 -2 1 3
 0 0 5
 -1.25 1.25 0
 -2 2 3
 0 0 5
 -1.25 1.875 0
 -2 3 3
 0 0 5
 -0.625 0.625 0
 -1 1 3
 0 0 5
 -0.625 1.25 0
 -1 2 3
 0 0 5
 -0.625 1.875 0
[...]
CELL_DATA 901
FIELD FieldData 5
LaunchID 1 901 int
 2
 2
 2
 2
 2
 2
 2
 2
 2
 2
 3
 3
 3
 3
 3
 3
 3
 3
 3
 3
 5
 5
 5
 5
 5
 5
 5
 5
 5
 5
 7
 7
 7
 7
 7
 7
 7
 7
 7
 7
 17
 17
 17
 17
 17
 17
 17
 17
 17
 17
 17
 19
 19
 19
 19
 19
 19
 19
 19
 19
 19
 19
 24
 24
 24
 24
 24
 24
 24
 24
 24
 24
 24
 24
 24
 24
 24
 25
 25
 25
 25
 25
 25
 25
 25
 25
 25
 25
 25
 25
 25
 25
 26
 26
 26
 26
 26
 26
 26
 26
 26
 26
 26
 26
 27
 27
 27
 27
 27
 27
 27
 27
 27
 27
 27
 27
 28
 28
 28
 29
 29
 29
 29
 29
 29
 29
 29
 29
 29
 29
 29
 30
 30
 30
 30
 30
 30
 30
 30
 30
 30
 30
 30
 31
 31
 31
 31
 31
 31
 31
 31
 31
 31
 31
 34
 34
 34
 34
 34
 34
 34
 34
 34
 34
 34
 40
 40
 40
 40
 40
 40
 40
 40
 40
 40
 40
 40
 40
 40
 40
 41
 41
 41
 41
 41
 41
 41
 41
 41
 41
 41
 41
 41
 41
 41
 58
 58
 58
 58
 58
 58
 58
 58
 58
 58
 58
 58
 58
 58
 58
 58
 58
 58
 58
 58
 58
 60
 60
 60
 60
 60
 60
 60
 60
 60
 60
 60
 60
 60
 60
 61
 61
 61
 61
 61
 61
 61
 61
 61
 62
 62
 62
 62
 62
 62
 62
 67
 67
 67
 67
 67
 67
 67
 68
 68
 68
 68
 68
 68
 68
 68
 68
 71
 71
 71
 71
 71
 71
 71
 71
 71
 71
 71
 71
 71
 71
 71
 71
 71
 71
 71
 71
 71
 84
 84
 84
 84
 84
 84
 84
 84
 84
 84
 84
 84
 84
 84
 84
 85
 85
 85
 85
 85
 85
 85
 85
 85
 85
 86
 86
 86
 86
 86
 86
 86
 86
 86
 86
 86
 86
 86
 87
 87
 87
 87
 87
 88
 88
 88
 88
 88
 88
 88
 89
 89
 89
 89
 89
 89
 89
 89
 89
 89
 90
 90
 90
 90
 90
 90
 90
 90
 90
 90
 90
 90
 90
 90
 90
 91
 91
 91
 91
 91
 91
 91
 91
 91
 91
 91
 91
 91
 92
 92
 92
 92
 92
 92
 92
 92
 92
 92
 92
 92
 92
 92
 92
 92
 92
 92
 93
 93
 93
 93
 93
 93
 93
 93
 93
 93
 93
 93
 93
 93
 93
 94
 94
 94
 94
 94
 94
 95
 95
 95
 95
 95
 95
 95
 95
 95
 95
 95
 96
 96
 96
 96
 96
 96
 96
 96
 96
 96
 97
 97
 97
 97
 97
 97
 97
 97
 98
 98
 98
 98
 98
 98
 99
 99
 99
 99
 99
 100
 100
 100
 100
 100
 100
 101
 101
 101
 101
 101
 102
 102
 102
 102
 102
 102
 103
 103
 103
 103
 103
 103
 103
 104
 104
 104
 104
 104
 105
 105
 105
 105
 105
 105
 105
 105
 105
 105
 105
 105
 105
 105
 105
 106
 106
 106
 106
 106
 106
 106
 106
 106
 107
 107
 107
 107
 107
 107
 107
 107
 107
 107
 107
 108
 108
 108
 108
 108
 109
 109
 109
 109
 109
 109
 110
 110
 110
 110
 110
 111
 111
 111
 111
 111
 111
 111
 111
 111
 111
 111
 111
 111
 111
 111
 111
 111
 111
 112
 112
 112
 112
 112
 112
 112
 112
 112
 112
 112
 112
 112
 113
 113
 113
 113
 113
 113
 113
 113
 113
 113
 113
 113
 113
 113
 113
 113
 113
 113
 113
 113
 113
 114
 114
 114
 114
 114
 114
 114
 114
 114
 114
 115
 115
 115
 115
 115
 115
 115
 115
 115
 115
 115
 115
 115
 115
 116
 116
 116
 116
 116
 116
 116
 116
 116
 122
 122
 122
 122
 122
 123
 123
 123
 123
 123
 123
 123
 123
 123
 126
 126
 126
 126
 126
 126
 126
 126
 126
 126
 126
 126
 126
 126
 126
 126
 126
 126
 126
 126
 126
 149
 149
 149
 149
 149
 149
 149
 149
 149
 149
 150
 150
 150
 150
 150
 150
 150
 150
 150
 150
 150
 150
 150
 150
 150
 151
 151
 151
 151
 151
 151
 151
 151
 151
 151
 151
 151
 151
 151
 151
 152
 152
 152
 152
 152
 152
 152
 152
 152
 152
 153
 153
 153
 153
 153
 153
 153
 153
 153
 153
 153
 153
 153
 154
 154
 154
 154
 154
 155
 155
 155
 155
 155
 155
 155
 156
 156
 156
 156
 156
 156
 156
 156
 156
 156
 156
 156
 156
 156
 156
 156
 156
 156
 157
 157
 157
 157
 157
 157
 157
 157
 157
 157
 157
 157
 157
 158
 158
 158
 158
 158
 158
 158
 158
 158
 158
 159
 159
 159
 159
 159
 159
 159
 159
 159
 159
 159
 159
 159
 159
 159
 159
 159
 159
 160
 160
 160
 160
 160
 160
 160
 160
 160
 160
 160
 160
 160
 160
 161
 161
 161
 161
 161
 161
 161
 161
 161
 161
 161
 218
 218
 220
 220
 220
 220
 220
 220
 226
 231
 252
 253
 253
 253
 260
 260
 264
 264
 264
 266
 318
 319
 319
 324
 324
 324
 334
 334
 335
 335
 335
 341
 341
 343
 346
 346
 350
 350
 355
 358
 363
 376
 376
 378
 378
 385
 386
 389
 394
 395
 396
 398
 415
 422
 425
 429
 429
 429
 437
 441
 446
 446
 458
 467
 468
 468
 468
 475
 475
 479
 479
 479
 481
 580
 580
 581
 582
 582
 582
 587
 588
 588
 603
 603
 603
 606
 621
 625
 628
 628
 634
 639
ReceiverID 1 901 int
 93
 94
 95
 114
 115
 116
 135
 136
 137
 199
 241
 303
 304
 305
 324
 325
 326
 345
 346
 347
 188
 208
 209
 223
 224
 229
 230
 250
 251
 272
 168
 189
 190
 210
 211
 216
 217
 231
 232
 252
 122
 123
 124
 141
 142
 143
 144
 161
 162
 163
 182
 266
 287
 288
 289
 309
 310
 311
 312
 332
 333
 334
 284
 305
 306
 391
 392
 411
 412
 413
 414
 415
 432
 433
 434
 435
 436
 282
 302
 303
 384
 385
 403
 404
 405
 406
 407
 424
 425
 426
 427
 428
 242
 266
 267
 268
 287
 288
 289
 290
 308
 309
 310
 311
 140
 141
 142
 143
 161
 162
 163
 164
 182
 183
 184
 200
 219
 220
 241
 129
 130
 131
 132
 150
 151
 152
 153
 172
 173
 174
 198
 240
 256
 257
 258
 276
 277
 278
 279
 297
 298
 299
 300
 258
 277
 278
 279
 296
 297
 298
 299
 316
 317
 318
 106
 107
 108
 128
 129
 130
 131
 151
 152
 153
 174
 4
 5
 6
 7
 8
 25
 26
 27
 28
 29
 48
 49
 134
 135
 156
 12
 13
 14
 15
 16
 33
 34
 35
 36
 37
 55
 56
 137
 138
 158
 18
 19
 20
 38
 39
 40
 41
 58
 59
 60
 61
 62
 79
 80
 81
 82
 99
 100
 101
 120
 121
 206
 207
 208
 209
 225
 226
 227
 228
 229
 230
 248
 249
 250
 251
 146
 165
 166
 167
 184
 185
 186
 187
 188
 125
 146
 167
 183
 202
 203
 204
 244
 245
 246
 267
 293
 314
 335
 268
 269
 270
 271
 272
 291
 292
 293
 314
 330
 331
 351
 352
 353
 373
 374
 375
 376
 394
 395
 396
 397
 398
 416
 417
 418
 419
 438
 439
 440
 327
 328
 348
 349
 350
 370
 371
 391
 392
 393
 413
 414
 434
 435
 436
 326
 347
 368
 369
 389
 390
 410
 411
 431
 432
 262
 343
 344
 364
 365
 366
 367
 386
 387
 388
 408
 409
 429
 283
 304
 410
 430
 431
 348
 349
 368
 369
 370
 389
 390
 324
 345
 365
 366
 386
 387
 407
 408
 428
 429
 322
 323
 342
 343
 344
 363
 364
 383
 384
 385
 404
 405
 424
 425
 426
 222
 227
 228
 247
 248
 249
 269
 270
 271
 291
 292
 312
 313
 243
 265
 331
 332
 333
 334
 353
 354
 355
 356
 374
 375
 376
 377
 396
 397
 398
 419
 263
 328
 329
 330
 350
 351
 352
 371
 372
 373
 374
 393
 394
 395
 416
 285
 286
 306
 307
 308
 327
 285
 286
 307
 308
 396
 417
 418
 437
 438
 439
 440
 144
 145
 165
 166
 185
 186
 187
 205
 206
 207
 203
 204
 221
 224
 225
 226
 245
 246
 156
 157
 158
 177
 178
 179
 180
 181
 200
 201
 202
 117
 118
 138
 139
 159
 160
 242
 243
 244
 264
 265
 261
 262
 263
 282
 283
 284
 112
 113
 132
 133
 134
 154
 155
 175
 176
 196
 197
 198
 212
 213
 218
 233
 234
 235
 253
 254
 255
 273
 274
 275
 294
 295
 296
 193
 194
 195
 214
 215
 216
 219
 236
 237
 126
 127
 128
 147
 148
 149
 169
 170
 171
 191
 192
 238
 239
 240
 259
 260
 280
 281
 301
 302
 322
 323
 236
 237
 238
 257
 315
 239
 259
 316
 317
 318
 319
 336
 337
 338
 339
 357
 358
 359
 360
 378
 379
 380
 399
 280
 281
 300
 301
 381
 382
 400
 401
 402
 420
 421
 422
 423
 319
 320
 339
 340
 341
 358
 359
 360
 361
 378
 379
 380
 381
 382
 399
 400
 401
 402
 420
 421
 422
 261
 320
 321
 340
 341
 342
 361
 362
 363
 383
 189
 190
 191
 192
 210
 211
 212
 213
 214
 215
 231
 232
 233
 234
 252
 253
 254
 255
 256
 273
 274
 275
 294
 105
 173
 194
 195
 196
 126
 147
 148
 149
 168
 169
 170
 171
 172
 0
 1
 2
 21
 22
 23
 24
 42
 43
 44
 45
 46
 64
 65
 66
 67
 87
 88
 89
 109
 110
 11
 12
 32
 33
 53
 54
 74
 75
 95
 116
 14
 15
 16
 35
 36
 55
 56
 57
 76
 77
 96
 97
 98
 117
 118
 4
 5
 6
 26
 27
 47
 48
 49
 69
 70
 90
 91
 92
 112
 113
 8
 9
 29
 30
 50
 51
 71
 72
 93
 114
 11
 31
 32
 52
 53
 54
 73
 74
 75
 76
 96
 97
 178
 9
 10
 30
 136
 157
 50
 51
 70
 71
 72
 91
 92
 17
 18
 19
 20
 38
 39
 40
 41
 58
 59
 60
 61
 62
 81
 139
 140
 159
 160
 57
 77
 78
 79
 80
 98
 99
 100
 101
 119
 120
 121
 179
 82
 83
 102
 103
 104
 122
 123
 124
 181
 201
 21
 42
 43
 44
 63
 64
 65
 66
 84
 85
 86
 87
 106
 107
 108
 109
 175
 197
 24
 45
 46
 47
 66
 67
 68
 69
 88
 89
 90
 110
 111
 177
 0
 1
 2
 3
 22
 23
 44
 132
 133
 154
 155
 17
 37
 83
 102
 103
 104
 125
 145
 205
 164
 247
 290
 313
 335
 415
 437
 354
 355
 377
 356
 372
 412
 433
 388
 409
 430
 406
 427
 362
 403
 423
 325
 346
 367
 330
 352
 418
 440
 286
 329
 264
 221
 222
 198
 199
 264
 242
 223
 154
 176
 110
 218
 217
 276
 321
 337
 338
 357
 260
 235
 295
 315
 336
 193
 105
 127
 150
 3
 25
 63
 85
 86
 84
 13
 34
 78
 10
 31
 52
 68
 7
 28
 73
 94
 115
 119
 180
 88
 0
 22
 111
 176
Eabs 1 901 double
 0.974975
 0.934978
 0.974975
 1.11169
 1.604
 1.11169
 2.03616
 1.58095
 2.03616
 3.8217
 3.8217
 2.03616
 1.58095
 1.38973
 1.11169
 1.604
 1.69839
 0.974975
 0.934978
 1.44477
 0.861626
 0.751982
 0.869921
 1.97543
 1.96257
 1.03537
 0.686998
 0.986218
 0.627901
 0.600778
 0.600778
 0.627901
 0.986218
 0.846608
 0.704158
 1.58095
 2.31339
 0.869921
 0.751982
 0.861626
 1.07359
 0.918519
 0.801259
 1.18867
 1.09757
 1.04968
 0.694669
 1.604
 1.56221
 1.29594
 1.86788
 1.38039
 1.37511
 1.03537
 1.00245
 1.20128
 1.05265
 0.872314
 1.05009
 0.679995
 0.699547
 0.696579
 2.25506
 1.38973
 1.38039
 0.725631
 1.05009
 0.72848
 0.772102
 0.889458
 0.696579
 0.709249
 0.600778
 0.846869
 0.761734
 0.608084
 0.768063
 2.0203
 1.86788
 2.03616
 0.694669
 1.05833
 0.738081
 0.801259
 0.727526
 0.864674
 0.937296
 0.632229
 0.74549
 0.713556
 0.688914
 0.861626
 3.82955
 1.38039
 1.13371
 0.979612
 1.37511
 1.03537
 1.00245
 1.21632
 1.29385
 1.20128
 1.05265
 0.872314
 1.22422
 1.18867
 1.09757
 1.04968
 1.604
 1.56221
 1.29594
 0.761561
 1.86788
 1.65417
 1.43541
 3.38309
 3.8217
 0
 3.8217
 0.872314
 1.05265
 1.20128
 1.61858
 1.21632
 1.00245
 1.03537
 1.37511
 0.979612
 1.13371
 1.38039
 4.02166
 3.38309
 1.43541
 1.65417
 1.86788
 0.761561
 1.29594
 1.56221
 1.604
 1.04968
 1.09757
 1.18867
 1.22422
 1.86788
 1.29594
 1.56221
 1.604
 0.694669
 1.04968
 1.09757
 1.18867
 0.801259
 0.918519
 1.07359
 0.696579
 0.699547
 0.679995
 1.05009
 0.872314
 1.05265
 1.20128
 1.00245
 1.03537
 1.37511
 1.38039
 0.632229
 0.74549
 0.713556
 0.688914
 0.861626
 0.738081
 0.801259
 0.727526
 0.864674
 0.937296
 0.694669
 1.05833
 1.86788
 2.03616
 2.0203
 0.861626
 0.688914
 0.713556
 0.74549
 0.632229
 0.937296
 0.864674
 0.727526
 0.801259
 0.738081
 1.05833
 0.694669
 2.03616
 1.86788
 2.0203
 0.596731
 0.593316
 0.553085
 0.638628
 0.703624
 0.587966
 0.593316
 0.846608
 0.648955
 0.677777
 0.703624
 0.596731
 0.937296
 0.770605
 0.648955
 0.638628
 1.03657
 1.00115
 0.937296
 0.788686
 1.03657
 0.788686
 1.04968
 0.751982
 0.869921
 1.37511
 1.48832
 1.26949
 0.766437
 1.03537
 0.686998
 1.30657
 0.872314
 0.986218
 0.627901
 0.713556
 1.05833
 0.864674
 0.688914
 1.43541
 1.23943
 0.726543
 0.937296
 0.861626
 0.74549
 0.713556
 0.688914
 1.65417
 2.0203
 2.03616
 1.11169
 2.25506
 1.38973
 1.69839
 1.13371
 0.846869
 0.761734
 0.608084
 0.979612
 0.874082
 1.13142
 0.72848
 0.600778
 0.725631
 0.772102
 0.846869
 0.761734
 1.02783
 0.956834
 0.956834
 0.882816
 0.72848
 0.72848
 0.784079
 0.876256
 0.789108
 0.686998
 0.876256
 0.700856
 0.495002
 0.67959
 0.789108
 0.495002
 0.688446
 0.535188
 0.67959
 0.535188
 0.58807
 1.13371
 1.03537
 0.979612
 1.00245
 1.05265
 1.21632
 0.872314
 0.725631
 1.05009
 0.699547
 0.889458
 0.696579
 0.761734
 0.608084
 0.768063
 1.69839
 1.44477
 1.30657
 0.874082
 0.872314
 1.13142
 0.986218
 0.72848
 0.627901
 0.600778
 2.75643
 1.29594
 1.43541
 0.761561
 1.23943
 0.788686
 0.877262
 0.726543
 1.04968
 1.14209
 0.751982
 0.704158
 0.869921
 2.31339
 1.58095
 0.986218
 0.846608
 0.627901
 0.979612
 1.00245
 1.30657
 0.874082
 1.21632
 0.872314
 1.13142
 1.11169
 0.974975
 1.23943
 0.788686
 0.726543
 1.04968
 0.937296
 0.751982
 0.861626
 0.869921
 1.56221
 1.65417
 1.09757
 1.29594
 1.43541
 1.04968
 0.761561
 0.918519
 0.694669
 1.05833
 0.801259
 0.727526
 0.632229
 0.74549
 0.713556
 2.34347
 1.26949
 0.766437
 1.44477
 1.30657
 0.872314
 0.874082
 1.13142
 0.72848
 0.725631
 0.772102
 1.05009
 0.889458
 2.871
 2.21018
 0.956834
 0.679995
 0.699547
 0.696579
 0.72848
 0.686998
 0.709249
 0.768063
 0.784079
 0.876256
 0.789108
 0.550108
 0.700856
 0.495002
 0.67959
 0.535188
 2.871
 1.03537
 1.20128
 1.02783
 1.05265
 0.956834
 0.882816
 0.872314
 0.679995
 0.72848
 0.784079
 0.699547
 0.686998
 0.876256
 0.789108
 2.21018
 1.70526
 1.38039
 1.37511
 1.29385
 1.13371
 2.21018
 1.70526
 1.37511
 1.29385
 0.700856
 0.495002
 0.688446
 0.550108
 0.67959
 0.535188
 0.58807
 0.694669
 0.727526
 1.05833
 0.864674
 1.23943
 0.726543
 0.937296
 0.974975
 0.788686
 1.04968
 2.03616
 1.11169
 3.94431
 1.96257
 1.37511
 1.48832
 1.38973
 1.69839
 2.0203
 2.31339
 2.0203
 2.60107
 2.75643
 2.60107
 2.17374
 1.64698
 3.38309
 2.60107
 2.0203
 1.65417
 1.56221
 1.86788
 1.604
 1.64698
 1.60809
 3.82955
 2.871
 2.25506
 2.45522
 2.21018
 2.60107
 2.75643
 2.871
 2.0203
 2.31339
 2.25506
 1.56221
 1.65417
 1.61858
 1.604
 1.86788
 1.98334
 1.64698
 2.21018
 2.80146
 2.25506
 2.871
 4.02166
 1.14209
 0.877262
 2.75643
 1.04968
 0.788686
 0.974975
 0.937296
 0.726543
 1.23943
 0.688914
 0.864674
 1.05833
 0.713556
 0.727526
 0.694669
 1.44477
 1.69839
 1.38973
 0.934978
 1.604
 1.58095
 3.8217
 1.11169
 2.03616
 0.761734
 0.889458
 1.05009
 0.846869
 0.772102
 0.725631
 0.72848
 1.13142
 0.874082
 0.872314
 1.30657
 2.0203
 2.60107
 3.38309
 1.64698
 2.17374
 1.60809
 1.64698
 1.604
 1.86788
 1.56221
 1.65417
 1.11169
 2.03616
 2.0203
 1.65417
 0.74549
 2.60107
 1.64698
 0.801259
 0.918519
 1.07359
 1.03657
 0.632229
 0.738081
 0.846608
 0.937296
 0.674051
 0.638628
 0.648955
 0.770605
 0.596731
 0.703624
 0.677777
 0.593316
 1.60809
 1.64698
 1.22422
 1.604
 0.648955
 0.846608
 0.587966
 0.703624
 0.638628
 0.553085
 0.593316
 0.596731
 0.674051
 1.03657
 0.788686
 0.937296
 1.00115
 1.03657
 0.638628
 0.648955
 0.770605
 0.937296
 0.596731
 0.703624
 0.677777
 0.648955
 0.846608
 0.593316
 0.587966
 0.703624
 0.638628
 0.553085
 0.593316
 0.596731
 2.60107
 0.788686
 1.18867
 1.00115
 1.03657
 1.09757
 0.937296
 1.07359
 1.04968
 0.918519
 0.627901
 0.986218
 0.872314
 1.30657
 0.846608
 0.704158
 1.14209
 0.877262
 0.934978
 1.604
 0.869921
 0.751982
 1.04968
 0.788686
 0.861626
 0.937296
 0.726543
 1.23943
 1.43541
 0.688914
 0.864674
 1.05833
 0.713556
 0.608084
 1.13371
 1.69839
 1.38973
 2.25506
 0.761734
 0.846869
 0.772102
 0.725631
 0.600778
 0.72848
 1.13142
 0.874082
 0.979612
 0.658887
 0.593316
 0.596731
 0.535188
 0.844552
 0.703624
 0.638628
 0.67959
 0.495002
 0.817598
 0.648955
 0.846608
 0.789108
 0.876256
 0.929291
 0.937296
 0.72848
 0.833139
 1.03657
 0.956834
 1.57202
 0.869921
 0.861626
 0.751982
 0.937296
 1.04968
 0.726543
 0.788686
 1.23943
 0.974975
 1.11169
 0.713556
 0.74549
 0.632229
 0.727526
 0.801259
 1.05833
 0.694669
 0.918519
 0.761561
 1.04968
 1.43541
 1.29594
 1.09757
 1.65417
 1.56221
 0.632229
 0.74549
 0.713556
 0.801259
 0.727526
 0.918519
 0.694669
 1.05833
 1.04968
 0.761561
 1.09757
 1.29594
 1.43541
 1.56221
 1.65417
 0.861626
 0.869921
 0.937296
 0.751982
 0.726543
 1.04968
 1.23943
 0.788686
 0.974975
 1.11169
 0.869921
 0.704158
 0.751982
 1.14209
 1.04968
 0.726543
 0.877262
 0.788686
 1.23943
 0.761561
 1.43541
 1.29594
 2.75643
 0.869921
 0.846608
 0.751982
 1.58095
 2.31339
 0.726543
 1.04968
 0.761561
 1.23943
 0.788686
 1.29594
 1.43541
 0.674051
 0.596731
 0.593316
 0.553085
 0.638628
 0.703624
 0.587966
 0.593316
 0.846608
 0.648955
 0.677777
 0.703624
 0.596731
 0.648955
 1.604
 1.22422
 1.64698
 1.60809
 0.918519
 1.04968
 1.07359
 0.937296
 0.770605
 1.09757
 1.03657
 1.00115
 0.937296
 1.18867
 0.788686
 1.03657
 2.60107
 0.638628
 0.674051
 0.846608
 0.738081
 0.632229
 1.07359
 0.918519
 0.801259
 1.64698
 2.60107
 0.535188
 0.67959
 0.495002
 0.817598
 0.550108
 0.789108
 0.876256
 0.929291
 0.768063
 0.709249
 0.686998
 0.72848
 0.696579
 0.699547
 0.679995
 0.956834
 2.21018
 2.871
 0.638628
 0.648955
 0.846608
 0.918519
 0.929291
 0.937296
 1.07359
 1.04968
 0.833139
 1.03657
 1.09757
 1.57202
 1.18867
 2.60107
 0.658887
 0.593316
 0.596731
 0.674051
 0.844552
 0.703624
 0.817598
 1.61858
 1.604
 1.98334
 1.64698
 0.674051
 0.738081
 0.674051
 0.846608
 0.738081
 0.632229
 0.74549
 0.727526
 0.974975
 0.761561
 1.44477
 1.21632
 0.889458
 0.608084
 0.709249
 0.550108
 0.686998
 0.709249
 0.550108
 0.768063
 0.679995
 0.772102
 0.846869
 1.14209
 0.704158
 0.846608
 0.864674
 0.688914
 1.07359
 0.738081
 0.674051
 1.604
 0.934978
 0.877262
 1.02783
 0.882816
 0.688446
 0.58807
 1.70526
 1.20128
 2.45522
 3.94431
 2.34347
 4.02166
 3.8217
 2.45522
 3.82955
 1.97543
 1.98334
 2.80146
 1.57202
 2.75643
 2.31339
 0.761561
 1.18867
 0.738081
 0.846608
 0.674051
 2.17374
 0.974975
 0.727526
 0.74549
 0.632229
 1.44477
 0.608084
 0.889458
 1.21632
 0.674051
 0.738081
 0.550108
 0.709249
 0.686998
 0.768063
 0.688914
 0.864674
 1.07359
 0.846608
 0.704158
 1.14209
 1.07359
 0.688914
 0.864674
 0.877262
 0.934978
 1.604
 1.18867
 2.17374
 0.833139
 0.658887
 0.844552
 1.18867
 2.80146
EdB 1 901 double
 119.78
 119.416
 119.78
 120.92
 124.104
 120.92
 126.176
 123.978
 126.176
 131.645
 131.645
 126.176
 123.978
 122.859
 120.92
 124.104
 124.601
 119.78
 119.416
 123.196
 118.706
 117.524
 118.79
 125.913
 125.856
 120.302
 116.739
 119.879
 115.958
 115.574
 115.574
 115.958
 119.879
 118.554
 116.953
 123.978
 127.285
 118.79
 117.524
 118.706
 120.617
 119.262
 118.075
 121.501
 120.809
 120.421
 116.836
 124.104
 123.875
 122.252
 125.427
 122.8
 122.767
 120.302
 120.021
 121.593
 120.446
 118.813
 120.424
 116.65
 116.896
 116.859
 127.063
 122.859
 122.8
 117.214
 120.424
 117.248
 117.753
 118.983
 116.859
 117.016
 115.574
 118.556
 117.636
 115.679
 117.708
 126.108
 125.427
 126.176
 116.836
 120.492
 117.362
 118.075
 117.237
 118.737
 119.438
 116.017
 117.449
 117.069
 116.763
 118.706
 131.663
 122.8
 121.09
 119.821
 122.767
 120.302
 120.021
 121.701
 122.238
 121.593
 120.446
 118.813
 121.757
 121.501
 120.809
 120.421
 124.104
 123.875
 122.252
 117.634
 125.427
 124.372
 123.14
 130.586
 131.645
 -1
 131.645
 118.813
 120.446
 121.593
 124.183
 121.701
 120.021
 120.302
 122.767
 119.821
 121.09
 122.8
 132.088
 130.586
 123.14
 124.372
 125.427
 117.634
 122.252
 123.875
 124.104
 120.421
 120.809
 121.501
 121.757
 125.427
 122.252
 123.875
 124.104
 116.836
 120.421
 120.809
 121.501
 118.075
 119.262
 120.617
 116.859
 116.896
 116.65
 120.424
 118.813
 120.446
 121.593
 120.021
 120.302
 122.767
 122.8
 116.017
 117.449
 117.069
 116.763
 118.706
 117.362
 118.075
 117.237
 118.737
 119.438
 116.836
 120.492
 125.427
 126.176
 126.108
 118.706
 116.763
 117.069
 117.449
 116.017
 119.438
 118.737
 117.237
 118.075
 117.362
 120.492
 116.836
 126.176
 125.427
 126.108
 115.516
 115.466
 114.856
 116.105
 116.947
 115.387
 115.466
 118.554
 116.244
 116.622
 116.947
 115.516
 119.438
 117.737
 116.244
 116.105
 120.312
 120.01
 119.438
 117.938
 120.312
 117.938
 120.421
 117.524
 118.79
 122.767
 123.454
 122.073
 117.69
 120.302
 116.739
 122.323
 118.813
 119.879
 115.958
 117.069
 120.492
 118.737
 116.763
 123.14
 121.864
 117.225
 119.438
 118.706
 117.449
 117.069
 116.763
 124.372
 126.108
 126.176
 120.92
 127.063
 122.859
 124.601
 121.09
 118.556
 117.636
 115.679
 119.821
 118.831
 121.072
 117.248
 115.574
 117.214
 117.753
 118.556
 117.636
 120.238
 119.617
 119.617
 118.917
 117.248
 117.248
 117.887
 118.853
 117.943
 116.739
 118.853
 116.913
 113.892
 116.645
 117.943
 113.892
 116.757
 114.57
 116.645
 114.57
 115.389
 121.09
 120.302
 119.821
 120.021
 120.446
 121.701
 118.813
 117.214
 120.424
 116.896
 118.983
 116.859
 117.636
 115.679
 117.708
 124.601
 123.196
 122.323
 118.831
 118.813
 121.072
 119.879
 117.248
 115.958
 115.574
 128.807
 122.252
 123.14
 117.634
 121.864
 117.938
 118.863
 117.225
 120.421
 121.154
 117.524
 116.953
 118.79
 127.285
 123.978
 119.879
 118.554
 115.958
 119.821
 120.021
 122.323
 118.831
 121.701
 118.813
 121.072
 120.92
 119.78
 121.864
 117.938
 117.225
 120.421
 119.438
 117.524
 118.706
 118.79
 123.875
 124.372
 120.809
 122.252