# vtk DataFile Version 2.0
Ray Path Visualization
ASCII
DATASET POLYDATA

POINTS 2202 float
 0 0 5
 -4.375 -0.625 0
 -7 -1 3
 0 0 5
 -4.375 0 0
 -7 0 3
 0 0 5
 -4.375 0.625 0
 -7 1 3
 0 0 5
 -3.75 -0.625 0
 -6 -1 3
 0 0 5
 -3.75 0 0
 -6 0 3
 0 0 5
 -3.75 0.625 0
 -6 1 3
 0 0 5
 -3.125 -1.25 0
 -5 -2 3
 0 0 5
 -3.125 -0.625 0
 -5 -1 3
 0 0 5
 -3.125 0 0
 -5 0 3
 0 0 5
 -3.125 0.625 0
 -5 1 3
 0 0 5
 -3.125 1.25 0
 -5 2 3
 0 0 5
 -2.5 -0.625 0
 -4 -1 3
 0 0 5
 -2.5 0 0
 -4 0 3
 0 0 5
 -2.5 0.625 0
 -4 1 3
 0 0 5
 -1.875 0 0
 -3 0 3
 0 0 5
 -1 0 3
 0 0 5
 1 0 3
 0 0 5
 1.875 0 0
 3 0 3
 0 0 5
 2.5 -0.625 0
 4 -1 3
 0 0 5
 2.5 0 0
 4 0 3
 0 0 5
 2.5 0.625 0
 4 1 3
 0 0 5
 3.125 -1.25 0
 5 -2 3
 0 0 5
 3.125 -0.625 0
 5 -1 3
 0 0 5
 3.125 0 0
 5 0 3
 0 0 5
 3.125 0.625 0
 5 1 3
 0 0 5
 3.125 1.25 0
 5 2 3
 0 0 5
 3.75 -0.625 0
 6 -1 3
 0 0 5
 3.75 0 0
 6 0 3
 0 0 5
 3.75 0.625 0
 6 1 3
 0 0 5
 4.375 -0.625 0
 7 -1 3
 0 0 5
 4.375 0 0
 7 0 3
 0 0 5
 4.375 0.625 0
 7 1 3
 0 0 5
 -1.875 6.25 0
 -3 10 3
 0 0 5
 -1.25 5.625 0
 -2 9 3
 0 0 5
 -1.25 6.25 0
 -2 10 3
 0 0 5
 -0.625 5 0
 -1 8 3
 0 0 5
 -0.625 5.625 0
 -1 9 3
 0 0 5
 -0.625 6.25 0
 -1 10 3
 0 0 5
 0 2 3
 0 0 5
 0 3 3
 0 0 5
 0 4 3
 0 0 5
 0 5 0
 0 8 3
 0 0 5
 0 5.625 0
 0 9 3
 0 0 5
 0 6.25 0
 0 10 3
 0 0 5
 0.625 5 0
 1 8 3
 0 0 5
 0.625 5.625 0
 1 9 3
 0 0 5
 0.625 6.25 0
 1 10 3
 0 0 5
 1.25 5.625 0
 2 9 3
 0 0 5
 1.25 6.25 0
 2 10 3
 0 0 5
 1.875 6.25 0
 3 10 3
 0 0 5
 -1.875 -6.25 0
 -3 -10 3
 0 0 5
 -1.25 -6.25 0
 -2 -10 3
 0 0 5
 -1.25 -5.625 0
 -2 -9 3
 0 0 5
 -0.625 -6.25 0
 -1 -10 3
 0 0 5
 -0.625 -5.625 0
 -1 -9 3
 0 0 5
 -0.625 -5 0
 -1 -8 3
 0 0 5
 0 -6.25 0
 0 -10 3
 0 0 5
 0 -5.625 0
 0 -9 3
 0 0 5
 0 -5 0
 0 -8 3
 0 0 5
 0 -4 3
 0 0 5
 0 -3 3
 0 0 5
 0 -2 3
 0 0 5
 0.625 -6.25 0
 1 -10 3
 0 0 5
 0.625 -5.625 0
 1 -9 3
 0 0 5
 0.625 -5 0
 1 -8 3
 0 0 5
 1.25 -6.25 0
 2 -10 3
 0 0 5
 1.25 -5.625 0
 2 -9 3
 0 0 5
 1.875 -6.25 0
 3 -10 3
 0 0 5
 9 6 3
 0 0 5
 10 6 3
 0 0 5
 10 7 3
 0 0 5
 -10 6 3
 0 0 5
 -10 7 3
 0 0 5
 -9 6 3
 0 0 5
 9 -6 3
 0 0 5
 10 -7 3
 0 0 5
 10 -6 3
 0 0 5
 -10 -7 3
 0 0 5
 -10 -6 3
 0 0 5
 -9 -6 3
 0 0 5
 -7 10 3
 0 0 5
 -6 8 3
 0 0 5
 -6 9 3
 0 0 5
 -6 10 3
 0 0 5
 -5 6 3
 0 0 5
 -5 7 3
 0 0 5
 -5 8 3
 0 0 5
 -5 9 3
 0 0 5
 -5 10 3
 0 0 5
 -4 5 3
 0 0 5
 -4 6 3
 0 0 5
 -4 7 3
 0 0 5
 -4 8 3
 0 0 5
 -3 4 3
 0 0 5
 -3 5 3
 0 0 5
 -3 6 3
 0 0 5
 -3 7 3
 0 0 5
 -2 3 3
 0 0 5
 -2 4 3
 0 0 5
 -2 5 3
 0 0 5
 2 3 3
 0 0 5
 2 4 3
 0 0 5
 2 5 3
 0 0 5
 3 4 3
 0 0 5
 3 5 3
 0 0 5
 3 6 3
 0 0 5
 3 7 3
 0 0 5
 4 5 3
 0 0 5
 4 6 3
 0 0 5
 4 7 3
 0 0 5
 4 8 3
 0 0 5
 5 6 3
 0 0 5
 5 7 3
 0 0 5
 5 8 3
 0 0 5
 5 9 3
 0 0 5
 5 10 3
 0 0 5
 6 8 3
 0 0 5
 6 9 3
 0 0 5
 6 10 3
 0 0 5
 7 10 3
 0 0 5
 2 1 3
 0 0 5
 3 1 3
 0 0 5
 4 1 3
 0 0 5
 4 2 3
 0 0 5
 4.375 1.875 0
 7 3 3
 0 0 5
 4.375 2.5 0
 7 4 3
 0 0 5
 5 1.25 0
 8 2 3
 0 0 5
 5 1.875 0
 8 3 3
 0 0 5
 5 2.5 0
 8 4 3
 0 0 5
 5 3.125 0
 8 5 3
 0 0 5
 5 3.75 0
 8 6 3
 0 0 5
 5.625 0.625 0
 9 1 3
 0 0 5
 5.625 1.25 0
 9 2 3
 0 0 5
 5.625 1.875 0
 9 3 3
 0 0 5
 5.625 2.5 0
 9 4 3
 0 0 5
 5.625 3.125 0
 9 5 3
 0 0 5
 5.625 3.75 0
 9 6 3
 0 0 5
 5.625 4.375 0
 9 7 3
 0 0 5
 6.25 0.625 0
 10 1 3
 0 0 5
 6.25 1.25 0
 10 2 3
 0 0 5
 6.25 1.875 0
 10 3 3
 0 0 5
 6.25 2.5 0
 10 4 3
 0 0 5
 6.25 3.125 0
 10 5 3
 0 0 5
 6.25 3.75 0
 10 6 3
 0 0 5
 6.25 4.375 0
 10 7 3
 0 0 5
 2 -1 3
 0 0 5
 3 -1 3
 0 0 5
 4 -2 3
 0 0 5
 4 -1 3
 0 0 5
 4.375 -2.5 0
 7 -4 3
 0 0 5
 4.375 -1.875 0
 7 -3 3
 0 0 5
 5 -3.75 0
 8 -6 3
 0 0 5
 5 -3.125 0
 8 -5 3
 0 0 5
 5 -2.5 0
 8 -4 3
 0 0 5
 5 -1.875 0
 8 -3 3
 0 0 5
 5 -1.25 0
 8 -2 3
 0 0 5
 5.625 -4.375 0
 9 -7 3
 0 0 5
 5.625 -3.75 0
 9 -6 3
 0 0 5
 5.625 -3.125 0
 9 -5 3
 0 0 5
 5.625 -2.5 0
 9 -4 3
 0 0 5
 5.625 -1.875 0
 9 -3 3
 0 0 5
 5.625 -1.25 0
 9 -2 3
 0 0 5
 5.625 -0.625 0
 9 -1 3
 0 0 5
 6.25 -4.375 0
 10 -7 3
 0 0 5
 6.25 -3.75 0
 10 -6 3
 0 0 5
 6.25 -3.125 0
 10 -5 3
 0 0 5
 6.25 -2.5 0
 10 -4 3
 0 0 5
 6.25 -1.875 0
 10 -3 3
 0 0 5
 6.25 -1.25 0
 10 -2 3
 0 0 5
 6.25 -0.625 0
 10 -1 3
 0 0 5
 1 1 3
 0 0 5
 0.625 2.5 0
 1 4 3
 0 0 5
 0.625 3.125 0
 1 5 3
 0 0 5
 1.25 1.875 0
 2 3 3
 0 0 5
 1.25 2.5 0
 2 4 3
 0 0 5
 1.25 3.125 0
 2 5 3
 0 0 5
 1.25 3.75 0
 2 6 3
 0 0 5
 1.25 4.375 0
 2 7 3
 0 0 5
 1.875 1.875 0
 3 3 3
 0 0 5
 1.875 2.5 0
 3 4 3
 0 0 5
 1.875 3.125 0
 3 5 3
 0 0 5
 1.875 3.75 0
 3 6 3
 0 0 5
 1.875 4.375 0
 3 7 3
 0 0 5
 2.5 2.5 0
 4 4 3
 0 0 5
 2.5 3.125 0
 4 5 3
 0 0 5
 2.5 3.75 0
 4 6 3
 0 0 5
 2.5 4.375 0
 4 7 3
 0 0 5
 3.125 3.125 0
 5 5 3
 0 0 5
 3.125 3.75 0
 5 6 3
 0 0 5
 3.125 4.375 0
 5 7 3
 0 0 5
 -3.125 2.5 0
 -5 4 3
 0 0 5
 -3.125 3.125 0
 -5 5 3
 0 0 5
 -3.125 3.75 0
 -5 6 3
 0 0 5
 -3.125 4.375 0
 -5 7 3
 0 0 5
 -2.5 1.875 0
 -4 3 3
 0 0 5
 -2.5 2.5 0
 -4 4 3
 0 0 5
 -2.5 3.125 0
 -4 5 3
 0 0 5
 -2.5 3.75 0
 -4 6 3
 0 0 5
 -2.5 4.375 0
 -4 7 3
 0 0 5
 -1.875 1.875 0
 -3 3 3
 0 0 5
 -1.875 2.5 0
 -3 4 3
 0 0 5
 -1.875 3.125 0
 -3 5 3
 0 0 5
 -1.875 3.75 0
 -3 6 3
 0 0 5
 -1.875 4.375 0
 -3 7 3
 0 0 5
 -1.25 1.875 0
 -2 3 3
 0 0 5
 -1.25 2.5 0
 -2 4 3
 0 0 5
 -1.25 3.125 0
 -2 5 3
 0 0 5
 -1.25 3.75 0
 -2 6 3
 0 0 5
 -1.25 4.375 0
 -2 7 3
 0 0 5
 -1 1 3
 0 0 5
 -0.625 2.5 0
 -1 4 3
 0 0 5
 -0.625 3.125 0
 -1 5 3
 0 0 5
 0 -0.625 0
 0 -1 3
 0 0 5
 0 0 3
 0 0 5
 0.625 0 0
 1 0 3
 0 0 5
 -3.125 -4.375 0
 -5 -7 3
 0 0 5
 -3.125 -3.75 0
 -5 -6 3
 0 0 5
 -3.125 -3.125 0
 -5 -5 3
 0 0 5
 -2.5 -4.375 0
 -4 -7 3
 0 0 5
 -2.5 -3.75 0
 -4 -6 3
 0 0 5
 -2.5 -3.125 0
 -4 -5 3
 0 0 5
 -2.5 -2.5 0
 -4 -4 3
 0 0 5
 -1.875 -4.375 0
 -3 -7 3
 0 0 5
 -1.875 -3.75 0
 -3 -6 3
 0 0 5
 -1.875 -3.125 0
 -3 -5 3
 0 0 5
 -1.875 -2.5 0
 -3 -4 3
 0 0 5
 -1.875 -1.875 0
 -3 -3 3
 0 0 5
 -1.25 -4.375 0
 -2 -7 3
 0 0 5
 -1.25 -3.75 0
 -2 -6 3
 0 0 5
 -1.25 -3.125 0
 -2 -5 3
 0 0 5
 -1.25 -2.5 0
 -2 -4 3
 0 0 5
 -1.25 -1.875 0
 -2 -3 3
 0 0 5
 -0.625 -3.125 0
 -1 -5 3
 0 0 5
 -0.625 -2.5 0
 -1 -4 3
 0 0 5
 -1 -1 3
 0 0 5
 0.625 -3.125 0
 1 -5 3
 0 0 5
 0.625 -2.5 0
 1 -4 3
 0 0 5
 1 -1 3
 0 0 5
 1.25 -4.375 0
 2 -7 3
 0 0 5
 1.25 -3.75 0
 2 -6 3
 0 0 5
 1.25 -3.125 0
 2 -5 3
 0 0 5
 1.25 -2.5 0
 2 -4 3
 0 0 5
 1.25 -1.875 0
 2 -3 3
 0 0 5
 1.875 -4.375 0
 3 -7 3
 0 0 5
 1.875 -3.75 0
 3 -6 3
 0 0 5
 1.875 -3.125 0
 3 -5 3
 0 0 5
 1.875 -2.5 0
 3 -4 3
 0 0 5
 1.875 -1.875 0
 3 -3 3
 0 0 5
 2.5 -4.375 0
 4 -7 3
 0 0 5
 2.5 -3.75 0
 4 -6 3
 0 0 5
 2.5 -3.125 0
 4 -5 3
 0 0 5
 2.5 -2.5 0
 4 -4 3
 0 0 5
 2.5 -1.875 0
 4 -3 3
 0 0 5
 3.125 -4.375 0
 5 -7 3
 0 0 5
 3.125 -3.75 0
 5 -6 3
 0 0 5
 3.125 -3.125 0
 5 -5 3
 0 0 5
 3.125 -2.5 0
 5 -4 3
 0 0 5
 2 -5 3
 0 0 5
 2 -4 3
 0 0 5
 2 -3 3
 0 0 5
 3 -7 3
 0 0 5
 3 -6 3
 0 0 5
 3 -5 3
 0 0 5
 3 -4 3
 0 0 5
 4 -8 3
 0 0 5
 4 -7 3
 0 0 5
 4 -6 3
 0 0 5
 4 -5 3
 0 0 5
 5 -10 3
 0 0 5
 5 -9 3
 0 0 5
 5 -8 3
 0 0 5
 5 -7 3
 0 0 5
 5 -6 3
 0 0 5
 6 -10 3
 0 0 5
 6 -9 3
 0 0 5
 6 -8 3
 0 0 5
 7 -10 3
 0 0 5
 -7 -10 3
 0 0 5
 -6 -10 3
 0 0 5
 -6 -9 3
 0 0 5
 -6 -8 3
 0 0 5
 -5 -10 3
 0 0 5
 -5 -9 3
 0 0 5
 -5 -8 3
 0 0 5
 -5 -7 3
 0 0 5
 -5 -6 3
 0 0 5
 -4 -8 3
 0 0 5
 -4 -7 3
 0 0 5
 -4 -6 3
 0 0 5
 -4 -5 3
 0 0 5
 -3 -7 3
 0 0 5
 -3 -6 3
 0 0 5
 -3 -5 3
 0 0 5
 -3 -4 3
 0 0 5
 -2 -5 3
 0 0 5
 -2 -4 3
 0 0 5
 -2 -3 3
 0 0 5
 -6.25 -4.375 0
 -10 -7 3
 0 0 5
 -6.25 -3.75 0
 -10 -6 3
 0 0 5
 -6.25 -3.125 0
 -10 -5 3
 0 0 5
 -6.25 -2.5 0
 -10 -4 3
 0 0 5
 -6.25 -1.875 0
 -10 -3 3
 0 0 5
 -6.25 -1.25 0
 -10 -2 3
 0 0 5
 -6.25 -0.625 0
 -10 -1 3
 0 0 5
 -5.625 -4.375 0
 -9 -7 3
 0 0 5
 -5.625 -3.75 0
 -9 -6 3
 0 0 5
 -5.625 -3.125 0
 -9 -5 3
 0 0 5
 -5.625 -2.5 0
 -9 -4 3
 0 0 5
 -5.625 -1.875 0
 -9 -3 3
 0 0 5
 -5.625 -1.25 0
 -9 -2 3
 0 0 5
 -5.625 -0.625 0
 -9 -1 3
 0 0 5
 -5 -3.75 0
 -8 -6 3
 0 0 5
 -5 -3.125 0
 -8 -5 3
 0 0 5
 -5 -2.5 0
 -8 -4 3
 0 0 5
 -5 -1.875 0
 -8 -3 3
 0 0 5
 -5 -1.25 0
 -8 -2 3
 0 0 5
 -4.375 -2.5 0
 -7 -4 3
 0 0 5
 -4.375 -1.875 0
 -7 -3 3
 0 0 5
 -4 -2 3
 0 0 5
 -4 -1 3
 0 0 5
 -3 -1 3
 0 0 5
 -2 -1 3
 0 0 5
 -6.25 0.625 0
 -10 1 3
 0 0 5
 -6.25 1.25 0
 -10 2 3
 0 0 5
 -6.25 1.875 0
 -10 3 3
 0 0 5
 -6.25 2.5 0
 -10 4 3
 0 0 5
 -6.25 3.125 0
 -10 5 3
 0 0 5
 -6.25 3.75 0
 -10 6 3
 0 0 5
 -6.25 4.375 0
 -10 7 3
 0 0 5
 -5.625 0.625 0
 -9 1 3
 0 0 5
 -5.625 1.25 0
 -9 2 3
 0 0 5
 -5.625 1.875 0
 -9 3 3
 0 0 5
 -5.625 2.5 0
 -9 4 3
 0 0 5
 -5.625 3.125 0
 -9 5 3
 0 0 5
 -5.625 3.75 0
 -9 6 3
 0 0 5
 -5.625 4.375 0
 -9 7 3
 0 0 5
 -5 1.25 0
 -8 2 3
 0 0 5
 -5 1.875 0
 -8 3 3
 0 0 5
 -5 2.5 0
 -8 4 3
 0 0 5
 -5 3.125 0
 -8 5 3
 0 0 5
 -5 3.75 0
 -8 6 3
 0 0 5
 -4.375 1.875 0
 -7 3 3
 0 0 5
 -4.375 2.5 0
 -7 4 3
 0 0 5
 -4 1 3
 0 0 5
 -4 2 3
 0 0 5
 -3 1 3
 0 0 5
 -2 1 3
 0 0 5
 -10 8 3
 0 0 5
 -10 9 3
 0 0 5
 -10 10 3
 0 0 5
 -9 7 3
 0 0 5
 -9 8 3
 0 0 5
 -9 9 3
 0 0 5
 -9 10 3
 0 0 5
 -8 6 3
 0 0 5
 -8 7 3
 0 0 5
 -8 8 3
 0 0 5
 -8 9 3
 0 0 5
 -8 10 3
 0 0 5
 -7 5 3
 0 0 5
 -7 6 3
 0 0 5
 -7 7 3
 0 0 5
 -7 8 3
 0 0 5
 -7 9 3
 0 0 5
 -6 5 3
 0 0 5
 -6 6 3
 0 0 5
 -6 7 3
 0 0 5
 -5 4 3
 0 0 5
 -5 5 3
 0 0 5
 -4 4 3
 0 0 5
 -1 6 3
 0 0 5
 -1 7 3
 0 0 5
 -1 8 3
 0 0 5
 -1 9 3
 0 0 5
 -1 10 3
 0 0 5
 0 5 3
 0 0 5
 0 6 3
 0 0 5
 0 7 3
 0 0 5
 0 8 3
 0 0 5
 0 9 3
 0 0 5
 0 10 3
 0 0 5
 1 6 3
 0 0 5
 1 7 3
 0 0 5
 1 8 3
 0 0 5
 1 9 3
 0 0 5
 1 10 3
 0 0 5
 -4 9 3
 0 0 5
 -4 10 3
 0 0 5
 -3 8 3
 0 0 5
 -3 9 3
 0 0 5
 -3 10 3
 0 0 5
 -2 6 3
 0 0 5
 -2 7 3
 0 0 5
 -2 8 3
 0 0 5
 -2 9 3
 0 0 5
 -2 10 3
 0 0 5
 -3.75 6.25 0
 -6 10 3
 0 0 5
 -3.125 5.625 0
 -5 9 3
 0 0 5
 -3.125 6.25 0
 -5 10 3
 0 0 5
 -2.5 5.625 0
 -4 9 3
 0 0 5
 -2.5 6.25 0
 -4 10 3
 0 0 5
 -1.875 5.625 0
 -3 9 3
 0 0 5
 -1 3 3
 0 0 5
 -1 4 3
 0 0 5
 -1 5 3
 0 0 5
 1 3 3
 0 0 5
 1 4 3
 0 0 5
 1 5 3
 0 0 5
 2 6 3
 0 0 5
 1.875 5.625 0
 3 9 3
 0 0 5
 2.5 5.625 0
 4 9 3
 0 0 5
 2.5 6.25 0
 4 10 3
 0 0 5
 3.125 5.625 0
 5 9 3
 0 0 5
 3.125 6.25 0
 5 10 3
 0 0 5
 3.75 6.25 0
 6 10 3
 0 0 5
 2 7 3
 0 0 5
 2 8 3
 0 0 5
 2 9 3
 0 0 5
 2 10 3
 0 0 5
 3 8 3
 0 0 5
 3 9 3
 0 0 5
 3 10 3
 0 0 5
 4 9 3
 0 0 5
 4 10 3
 0 0 5
 4 4 3
 0 0 5
 5 4 3
 0 0 5
 5 5 3
 0 0 5
 6 5 3
 0 0 5
 6 6 3
 0 0 5
 6 7 3
 0 0 5
 7 5 3
 0 0 5
 7 6 3
 0 0 5
 7 7 3
 0 0 5
 7 8 3
[...]
CELL_DATA 881
FIELD FieldData 5
LaunchID 1 881 int
 2
 2
 2
 2
 2
 2
 2
 2
 2
 2
 2
 2
 2
 2
 2
 2
 3
 3
 3
 3
 3
 3
 3
 3
 3
 3
 3
 3
 3
 3
 3
 3
 5
 5
 5
 5
 5
 5
 5
 5
 5
 5
 5
 5
 5
 5
 5
 5
 5
 5
 7
 7
 7
 7
 7
 7
 7
 7
 7
 7
 7
 7
 7
 7
 7
 7
 7
 7
 8
 8
 8
 9
 9
 9
 10
 10
 10
 11
 11
 11
 17
 17
 17
 17
 17
 17
 17
 17
 17
 17
 17
 17
 17
 17
 17
 17
 17
 17
 17
 17
 19
 19
 19
 19
 19
 19
 19
 19
 19
 19
 19
 19
 19
 19
 19
 19
 19
 19
 19
 19
 24
 24
 24
 24
 24
 24
 24
 24
 24
 24
 24
 24
 24
 24
 24
 24
 24
 24
 24
 24
 24
 24
 24
 24
 24
 25
 25
 25
 25
 25
 25
 25
 25
 25
 25
 25
 25
 25
 25
 25
 25
 25
 25
 25
 25
 25
 25
 25
 25
 25
 26
 26
 26
 26
 26
 26
 26
 26
 26
 26
 26
 26
 26
 26
 26
 26
 26
 26
 26
 26
 27
 27
 27
 27
 27
 27
 27
 27
 27
 27
 27
 27
 27
 27
 27
 27
 27
 27
 27
 27
 27
 27
 28
 28
 28
 29
 29
 29
 29
 29
 29
 29
 29
 29
 29
 29
 29
 29
 29
 29
 29
 29
 29
 29
 29
 30
 30
 30
 30
 30
 30
 30
 30
 30
 30
 30
 30
 30
 30
 30
 30
 30
 30
 30
 30
 30
 30
 31
 31
 31
 31
 31
 31
 31
 31
 31
 31
 31
 31
 31
 31
 31
 31
 31
 31
 31
 31
 34
 34
 34
 34
 34
 34
 34
 34
 34
 34
 34
 34
 34
 34
 34
 34
 34
 34
 34
 34
 40
 40
 40
 40
 40
 40
 40
 40
 40
 40
 40
 40
 40
 40
 40
 40
 40
 40
 40
 40
 40
 40
 40
 40
 40
 41
 41
 41
 41
 41
 41
 41
 41
 41
 41
 41
 41
 41
 41
 41
 41
 41
 41
 41
 41
 41
 41
 41
 41
 41
 58
 58
 58
 58
 58
 58
 58
 58
 58
 58
 58
 58
 58
 58
 58
 58
 58
 58
 58
 58
 58
 58
 58
 60
 60
 60
 60
 60
 60
 60
 60
 60
 60
 60
 60
 60
 60
 60
 60
 61
 61
 61
 61
 61
 61
 61
 61
 61
 61
 62
 62
 62
 62
 62
 62
 62
 62
 62
 67
 67
 67
 67
 67
 67
 67
 67
 67
 67
 68
 68
 68
 68
 68
 68
 68
 68
 68
 71
 71
 71
 71
 71
 71
 71
 71
 71
 71
 71
 71
 71
 71
 71
 71
 71
 71
 71
 71
 71
 71
 71
 84
 84
 84
 84
 84
 84
 84
 84
 84
 84
 84
 84
 84
 84
 84
 85
 85
 85
 85
 85
 85
 85
 85
 85
 85
 85
 85
 85
 85
 85
 86
 86
 86
 86
 86
 86
 86
 86
 87
 87
 87
 88
 88
 88
 89
 89
 89
 89
 89
 89
 89
 89
 89
 89
 89
 89
 89
 90
 90
 90
 90
 90
 90
 90
 90
 90
 90
 90
 90
 90
 90
 91
 91
 91
 91
 91
 91
 91
 91
 92
 92
 92
 92
 92
 92
 92
 92
 92
 92
 92
 92
 92
 92
 92
 92
 93
 93
 93
 93
 93
 93
 93
 93
 93
 93
 94
 94
 94
 95
 95
 95
 95
 96
 96
 96
 96
 96
 96
 97
 97
 97
 97
 98
 98
 98
 98
 98
 99
 99
 99
 99
 99
 100
 100
 100
 100
 100
 101
 101
 101
 101
 102
 102
 102
 102
 103
 103
 103
 103
 103
 103
 103
 104
 104
 104
 104
 104
 105
 105
 105
 105
 105
 105
 105
 105
 105
 105
 105
 106
 106
 106
 106
 106
 106
 107
 107
 107
 107
 107
 107
 107
 108
 108
 108
 108
 109
 109
 109
 110
 110
 110
 110
 110
 110
 110
 111
 111
 111
 111
 111
 111
 111
 111
 111
 111
 111
 111
 111
 111
 111
 111
 111
 111
 111
 112
 112
 112
 112
 112
 112
 112
 113
 113
 113
 113
 113
 113
 113
 113
 113
 113
 113
 113
 113
 113
 113
 113
 113
 113
 113
 113
 114
 114
 114
 115
 115
 115
 115
 115
 115
 115
 115
 115
 115
 115
 115
 115
 115
 115
 115
 116
 116
 116
 116
 116
 116
 116
 116
 116
 122
 122
 122
 122
 122
 122
 122
 123
 123
 123
 123
 123
 123
 123
 123
 123
 126
 126
 126
 126
 126
 126
 126
 126
 126
 126
 126
 126
 126
 126
 126
 126
 126
 126
 126
 126
 126
 126
 126
 149
 149
 149
 149
 149
 149
 149
 149
 149
 149
 149
 149
 149
 149
 149
 149
 149
 150
 150
 150
 150
 150
 150
 150
 150
 150
 150
 150
 150
 150
 151
 151
 151
 151
 151
 151
 151
 151
 151
 151
 151
 151
 151
 151
 151
 152
 152
 152
 152
 152
 152
 152
 152
 152
 152
 152
 153
 153
 153
 153
 153
 153
 154
 154
 154
 155
 156
 156
 156
 156
 156
 156
 156
 156
 156
 156
 156
 156
 156
 156
 156
 156
 156
 156
 156
 157
 157
 157
 157
 157
 157
 158
 158
 159
 159
 159
 159
 159
 159
 159
 159
 159
 159
 159
 159
 159
 159
 159
 159
 160
 160
 160
 160
 160
 160
 160
 161
 161
 161
 161
 324
 324
 376
 376
 582
 582
ReceiverID 1 881 int
 72
 73
 74
 93
 94
 95
 113
 114
 115
 116
 117
 135
 136
 137
 157
 199
 241
 283
 303
 304
 305
 323
 324
 325
 326
 327
 345
 346
 347
 366
 367
 368
 167
 187
 188
 207
 208
 209
 222
 223
 224
 228
 229
 230
 249
 250
 251
 271
 272
 293
 147
 168
 169
 189
 190
 191
 210
 211
 212
 216
 217
 218
 231
 232
 233
 252
 253
 273
 415
 436
 437
 16
 17
 37
 403
 423
 424
 3
 4
 25
 83
 102
 103
 104
 121
 122
 123
 124
 125
 141
 142
 143
 144
 161
 162
 163
 164
 181
 182
 183
 265
 266
 267
 287
 288
 289
 290
 309
 310
 311
 312
 331
 332
 333
 334
 335
 354
 355
 356
 377
 263
 284
 305
 306
 370
 371
 390
 391
 392
 393
 394
 410
 411
 412
 413
 414
 415
 416
 431
 432
 433
 434
 435
 436
 437
 261
 282
 302
 303
 363
 364
 382
 383
 384
 385
 386
 402
 403
 404
 405
 406
 407
 408
 423
 424
 425
 426
 427
 428
 429
 242
 245
 246
 265
 266
 267
 268
 269
 286
 287
 288
 289
 290
 308
 309
 310
 311
 330
 331
 332
 119
 120
 121
 122
 139
 140
 141
 142
 143
 160
 161
 162
 163
 164
 181
 182
 183
 184
 185
 200
 203
 204
 219
 220
 241
 108
 109
 110
 129
 130
 131
 132
 150
 151
 152
 153
 154
 171
 172
 173
 174
 175
 194
 195
 198
 236
 237
 240
 255
 256
 257
 258
 259
 276
 277
 278
 279
 280
 297
 298
 299
 300
 301
 318
 319
 320
 321
 257
 258
 259
 276
 277
 278
 279
 296
 297
 298
 299
 315
 316
 317
 318
 319
 336
 337
 338
 357
 63
 84
 85
 86
 105
 106
 107
 108
 109
 128
 129
 130
 131
 150
 151
 152
 153
 173
 174
 175
 3
 4
 5
 6
 7
 8
 9
 24
 25
 26
 27
 28
 29
 30
 46
 47
 48
 49
 50
 69
 70
 134
 135
 156
 177
 11
 12
 13
 14
 15
 16
 17
 32
 33
 34
 35
 36
 37
 38
 54
 55
 56
 57
 58
 76
 77
 137
 138
 158
 179
 18
 19
 20
 38
 39
 40
 41
 58
 59
 60
 61
 62
 78
 79
 80
 81
 82
 99
 100
 101
 119
 120
 140
 205
 206
 207
 208
 209
 225
 226
 227
 228
 229
 230
 247
 248
 249
 250
 251
 145
 146
 165
 166
 167
 184
 185
 186
 187
 188
 104
 124
 125
 145
 146
 166
 202
 203
 204
 244
 245
 246
 268
 292
 313
 314
 334
 335
 356
 269
 270
 271
 272
 291
 292
 293
 313
 314
 308
 329
 330
 351
 352
 353
 372
 373
 374
 375
 376
 394
 395
 396
 397
 398
 416
 417
 418
 419
 438
 439
 440
 327
 328
 348
 349
 350
 370
 371
 391
 392
 393
 412
 413
 414
 434
 435
 325
 326
 346
 347
 367
 368
 369
 388
 389
 390
 410
 411
 431
 432
 433
 262
 343
 344
 365
 387
 388
 409
 430
 283
 304
 389
 348
 349
 369
 324
 344
 345
 365
 366
 386
 387
 406
 407
 408
 427
 428
 429
 322
 323
 342
 343
 362
 363
 364
 383
 384
 385
 404
 405
 425
 426
 226
 227
 243
 247
 248
 270
 291
 312
 264
 333
 352
 353
 354
 355
 374
 375
 376
 377
 396
 397
 398
 418
 419
 440
 307
 328
 329
 350
 351
 372
 373
 395
 417
 438
 284
 285
 306
 285
 286
 307
 439
 144
 165
 186
 201
 205
 206
 221
 223
 224
 225
 156
 158
 177
 178
 179
 180
 200
 201
 202
 222
 96
 97
 118
 138
 159
 242
 243
 244
 264
 261
 262
 263
 282
 91
 92
 111
 112
 133
 134
 155
 176
 196
 197
 198
 218
 213
 214
 234
 235
 239
 254
 274
 275
 294
 295
 296
 192
 193
 215
 216
 217
 219
 126
 127
 128
 148
 149
 170
 197
 238
 239
 240
 260
 281
 302
 322
 236
 237
 238
 256
 315
 316
 336
 260
 317
 337
 338
 339
 340
 357
 358
 359
 360
 361
 378
 379
 380
 381
 399
 400
 401
 420
 280
 281
 300
 301
 321
 421
 422
 320
 339
 340
 341
 358
 359
 360
 361
 378
 379
 380
 381
 382
 399
 400
 401
 402
 420
 421
 422
 341
 342
 362
 189
 190
 191
 192
 193
 210
 211
 212
 213
 214
 215
 231
 232
 233
 234
 235
 252
 253
 254
 255
 273
 274
 275
 294
 295
 84
 105
 106
 172
 194
 195
 196
 126
 127
 147
 148
 149
 168
 169
 170
 171
 0
 1
 2
 21
 22
 23
 24
 42
 43
 44
 45
 46
 64
 65
 66
 67
 68
 87
 88
 89
 110
 111
 132
 11
 12
 13
 32
 33
 34
 52
 53
 54
 73
 74
 75
 94
 95
 96
 115
 116
 14
 15
 35
 36
 55
 56
 57
 76
 77
 97
 98
 117
 118
 5
 6
 26
 27
 28
 47
 48
 49
 69
 70
 90
 91
 92
 112
 113
 7
 8
 9
 29
 30
 50
 51
 71
 72
 93
 114
 10
 31
 52
 53
 75
 178
 51
 136
 157
 71
 18
 19
 20
 39
 40
 41
 59
 60
 61
 62
 80
 81
 82
 83
 102
 139
 159
 160
 180
 78
 79
 98
 99
 100
 101
 103
 123
 0
 21
 22
 42
 43
 44
 63
 64
 65
 66
 85
 86
 87
 88
 107
 176
 2
 23
 45
 67
 68
 89
 90
 1
 133
 154
 155
 409
 430
 199
 221
 10
 31
Eabs 1 881 double
 0.786545
 0.877749
 0.786545
 0.9719
 0.934314
 0.9719
 1.65717
 1.11109
 1.60711
 1.11109
 1.65717
 2.03806
 1.57808
 2.03806
 2.31324
 3.82131
 3.82131
 2.31324
 2.03806
 1.57808
 2.03806
 1.65717
 1.11109
 1.60711
 1.11109
 1.65717
 0.9719
 0.934314
 0.9719
 0.786545
 0.877749
 0.786545
 0.689652
 0.937496
 0.863618
 1.05234
 0.750052
 0.870603
 2.75749
 2.31324
 1.57808
 1.14463
 0.702313
 0.846651
 1.05234
 0.750052
 0.870603
 0.937496
 0.863618
 0.689652
 0.689652
 0.863618
 0.937496
 0.870603
 0.750052
 1.05234
 0.846651
 0.702313
 1.14463
 1.57808
 2.31324
 2.75749
 0.870603
 0.750052
 1.05234
 0.863618
 0.937496
 0.689652
 0.737438
 0.630989
 0.675709
 0.630989
 0.675709
 0.737438
 0.737438
 0.675709
 0.630989
 0.675709
 0.630989
 0.737438
 0.675709
 0.846651
 0.737438
 0.630989
 1.03573
 1.07539
 0.920843
 0.803301
 0.747374
 1.1913
 1.09644
 1.05234
 0.693606
 1.60711
 1.56509
 1.29598
 0.760563
 1.64425
 1.86847
 1.65717
 1.64425
 1.86847
 1.65717
 1.60711
 1.56509
 1.29598
 0.760563
 1.1913
 1.09644
 1.05234
 0.693606
 1.03573
 1.07539
 0.920843
 0.803301
 0.747374
 0.846651
 0.737438
 0.630989
 0.675709
 2.59932
 2.02158
 2.03806
 1.86847
 0.760563
 1.05234
 0.725565
 1.05924
 0.693606
 0.920843
 0.846651
 0.750052
 0.937496
 0.866879
 0.725924
 0.803301
 0.737438
 0.639025
 0.870603
 0.863618
 0.689652
 0.712506
 0.747374
 0.630989
 0.675709
 2.59932
 2.02158
 1.86847
 2.03806
 1.05234
 0.760563
 0.846651
 0.920843
 0.693606
 1.05924
 0.725565
 0.639025
 0.737438
 0.803301
 0.725924
 0.866879
 0.937496
 0.750052
 0.675709
 0.630989
 0.747374
 0.712506
 0.689652
 0.863618
 0.870603
 3.38282
 2.03806
 1.11109
 1.64425
 1.86847
 1.65717
 1.43835
 1.2401
 1.61014
 1.60711
 1.56509
 1.29598
 0.760563
 1.22183
 1.1913
 1.09644
 1.05234
 0.786545
 1.03573
 1.07539
 1.1913
 0.786545
 1.03573
 1.07539
 1.60711
 1.22183
 1.1913
 1.09644
 1.05234
 1.61014
 1.60711
 1.56509
 1.29598
 0.760563
 1.64425
 1.86847
 1.65717
 1.43835
 1.2401
 3.38282
 2.03806
 1.11109
 3.82131
 3.87298
 3.82131
 1.07539
 1.03573
 0.786545
 1.05234
 1.09644
 1.1913
 1.22183
 0.760563
 1.29598
 1.56509
 1.60711
 1.61014
 1.2401
 1.43835
 1.65717
 1.86847
 1.64425
 1.11109
 2.03806
 3.38282
 1.11109
 2.03806
 3.38282
 1.2401
 1.43835
 1.65717
 1.86847
 1.64425
 0.760563
 1.29598
 1.56509
 1.60711
 1.61014
 1.05234
 1.09644
 1.1913
 1.22183
 1.60711
 1.07539
 1.03573
 0.786545
 1.1913
 1.65717
 1.86847
 1.64425
 0.760563
 1.29598
 1.56509
 1.60711
 0.693606
 1.05234
 1.09644
 1.1913
 0.747374
 0.803301
 0.920843
 1.07539
 1.03573
 0.630989
 0.737438
 0.846651
 0.675709
 0.675709
 0.630989
 0.737438
 0.846651
 0.747374
 0.803301
 0.920843
 1.07539
 1.03573
 0.693606
 1.05234
 1.09644
 1.1913
 0.760563
 1.29598
 1.56509
 1.60711
 1.65717
 1.86847
 1.64425
 0.675709
 0.630989
 0.747374
 0.712506
 0.689652
 0.863618
 0.870603
 0.639025
 0.737438
 0.803301
 0.725924
 0.866879
 0.937496
 0.750052
 0.846651
 0.920843
 0.693606
 1.05924
 0.725565
 1.05234
 0.760563
 1.86847
 2.03806
 2.02158
 2.59932
 0.870603
 0.863618
 0.689652
 0.712506
 0.747374
 0.630989
 0.675709
 0.750052
 0.937496
 0.866879
 0.725924
 0.803301
 0.737438
 0.639025
 0.725565
 1.05924
 0.693606
 0.920843
 0.846651
 0.760563
 1.05234
 2.03806
 1.86847
 2.02158
 2.59932
 0.595748
 0.59466
 0.552376
 0.639025
 0.704826
 0.586934
 0.59466
 0.846651
 0.64756
 0.679027
 0.704826
 0.595748
 1.07539
 0.937496
 0.769413
 0.64756
 0.639025
 1.03573
 1.00096
 0.937496
 1.1913
 0.786545
 1.22183
 0.9719
 0.786545
 1.05234
 0.750052
 0.870603
 1.60711
 0.934314
 0.877749
 1.14463
 0.702313
 0.846651
 0.9719
 0.786545
 1.05234
 0.750052
 0.870603
 0.725924
 0.712506
 1.05924
 0.866879
 0.689652
 1.43835
 1.2401
 0.725565
 0.937496
 0.863618
 0.630989
 0.803301
 0.747374
 0.725924
 0.712506
 0.866879
 2.02158
 2.03806
 1.11109
 2.02158
 2.03806
 1.11109
 1.43835
 0.866879
 0.725924
 0.712506
 0.803301
 0.747374
 0.630989
 1.2401
 0.725565
 0.937496
 0.863618
 1.05924
 0.866879
 0.689652
 0.725924
 0.712506
 1.22183
 1.1913
 0.786545
 1.03573
 1.00096
 0.937496
 1.07539
 0.937496
 0.769413
 0.64756
 0.639025
 0.846651
 0.64756
 0.679027
 0.704826
 0.595748
 0.639025
 0.704826
 0.586934
 0.59466
 0.595748
 0.59466
 0.552376
 1.65717
 1.56509
 1.43835
 1.29598
 1.09644
 0.760563
 1.05234
 1.05924
 0.693606
 0.920843
 0.866879
 0.725924
 0.803301
 0.712506
 0.747374
 1.60711
 1.11109
 0.934314
 0.9719
 0.877749
 0.786545
 1.2401
 1.14463
 1.05234
 0.725565
 0.750052
 0.937496
 0.870603
 0.863618
 0.689652
 2.75749
 1.29598
 1.43835
 1.2401
 1.05234
 1.14463
 0.702313
 0.846651
 2.31324
 1.57808
 1.05234
 1.43835
 1.29598
 1.2401
 1.11109
 1.43835
 0.9719
 1.2401
 0.786545
 0.725565
 1.05234
 0.866879
 0.937496
 0.750052
 0.689652
 0.863618
 0.870603
 1.56509
 1.65717
 1.09644
 1.29598
 1.07539
 1.05234
 0.760563
 0.920843
 0.693606
 1.05924
 0.803301
 0.725924
 0.747374
 0.712506
 0.934314
 0.877749
 2.59932
 0.9719
 0.786545
 0.725565
 1.05924
 0.693606
 2.17433
 0.920843
 1.00096
 0.937496
 0.846651
 0.737438
 0.769413
 0.64756
 0.639025
 0.675709
 0.679027
 0.704826
 0.595748
 0.586934
 0.59466
 0.552376
 1.60711
 1.56509
 1.1913
 1.09644
 1.03573
 1.07539
 0.937496
 0.64756
 0.704826
 0.595748
 2.02158
 1.64425
 1.86847
 1.64425
 1.61014
 1.60711
 0.59466
 0.693606
 1.05924
 0.725565
 2.59932
 0.9719
 0.786545
 3.82131
 2.31324
 1.57808
 1.60711
 2.02158
 2.02158
 2.59932
 2.75749
 2.59932
 2.17433
 3.38282
 2.59932
 2.02158
 2.75749
 1.43835
 1.29598
 1.56509
 1.86847
 1.64425
 3.38282
 2.59932
 2.02158
 2.17433
 2.59932
 2.75749
 2.59932
 2.02158
 1.29598
 1.43835
 1.1913
 1.56509
 1.60711
 1.86847
 1.64425
 2.17433
 2.02158
 2.59932
 3.38282
 2.75749
 0.877749
 0.934314
 0.786545
 0.9719
 2.59932
 0.725565
 0.866879
 1.05924
 0.712506
 0.725924
 0.693606
 0.786545
 0.9719
 1.60711
 1.57808
 2.31324
 3.82131
 0.712506
 0.725924
 0.693606
 0.866879
 1.05924
 0.725565
 2.59932
 2.02158
 2.59932
 3.38282
 2.17433
 1.64425
 1.86847
 1.56509
 1.11109
 2.03806
 2.02158
 1.43835
 0.747374
 0.803301
 0.630989
 2.17433
 0.920843
 0.737438
 0.846651
 0.937496
 1.00096
 0.675709
 0.639025
 0.64756
 0.769413
 0.937496
 0.595748
 0.704826
 0.679027
 0.64756
 0.59466
 0.586934
 0.704826
 0.552376
 1.61014
 1.64425
 1.22183
 1.60711
 1.1913
 0.59466
 0.595748
 0.786545
 0.937496
 1.00096
 1.03573
 0.639025
 0.64756
 0.769413
 0.937496
 0.595748
 0.704826
 0.679027
 0.64756
 0.846651
 0.59466
 0.586934
 0.704826
 0.639025
 0.552376
 0.59466
 0.595748
 1.03573
 1.09644
 1.07539
 0.870603
 0.750052
 1.05234
 0.786545
 0.9719
 0.846651
 0.702313
 1.14463
 0.877749
 0.934314
 1.60711
 0.870603
 0.750052
 1.05234
 0.786545
 0.9719
 0.863618
 0.937496
 0.725565
 1.2401
 0.689652
 0.866879
 1.05924
 0.712506
 0.725924
 0.630989
 0.747374
 0.803301
 1.43835
 1.11109
 2.03806
 2.02158
 0.712506
 0.725924
 0.689652
 0.866879
 1.05924
 0.863618
 0.937496
 0.725565
 1.2401
 0.552376
 0.59466
 0.595748
 0.59466
 0.586934
 0.704826
 0.639025
 0.595748
 0.704826
 0.679027
 0.64756
 0.846651
 0.639025
 0.64756
 0.769413
 0.937496
 1.07539
 0.937496
 1.00096
 1.03573
 0.786545
 1.1913
 1.22183
 0.870603
 0.863618
 0.689652
 0.750052
 0.937496
 0.866879
 1.14463
 1.05234
 0.725565
 0.877749
 0.786545
 1.2401
 0.934314
 0.9719
 1.43835
 1.60711
 1.11109
 0.712506
 0.747374
 0.725924
 0.803301
 1.05924
 0.693606
 0.920843
 0.760563
 1.05234
 1.29598
 1.09644
 1.65717
 1.56509
 0.747374
 0.712506
 0.803301
 0.725924
 0.866879
 0.920843
 0.693606
 1.05924
 1.05234
 0.760563
 1.09644
 1.29598
 1.43835
 1.56509
 1.65717
 0.689652
 0.863618
 0.870603
 0.937496
 0.750052
 0.725565
 1.05234
 1.2401
 0.786545
 0.9719
 1.11109
 0.846651
 0.702313
 1.14463
 1.05234
 1.2401
 2.75749
 1.05234
 1.57808
 2.31324
 1.2401
 0.595748
 0.59466
 0.552376
 0.704826
 0.586934
 0.59466
 0.64756
 0.679027
 0.704826
 0.595748
 0.769413
 0.64756
 0.639025
 0.675709
 0.846651
 1.60711
 1.64425
 1.61014
 2.17433
 1.07539
 0.937496
 1.09644
 1.03573
 1.00096
 0.937496
 0.737438
 0.920843
 0.552376
 0.59466
 0.586934
 0.595748
 0.704826
 0.679027
 0.675709
 0.639025
 0.64756
 0.769413
 0.737438
 0.846651
 0.937496
 1.00096
 0.920843
 2.17433
 0.595748
 0.704826
 0.64756
 0.937496
 1.07539
 1.03573
 1.09644
 0.59466
 1.60711
 1.61014
 1.64425
 0.702313
 0.846651
 3.82131
 3.82131
 0.846651
 0.702313
EdB 1 881 double
 117.914
 118.867
 117.914
 119.752
 119.41
 119.752
 124.387
 120.915
 124.121
 120.915
 124.387
 126.184
 123.963
 126.184
 127.284
 131.644
 131.644
 127.284
 126.184
 123.963
 126.184
 124.387
 120.915
 124.121
 120.915
 124.387
 119.752
 119.41
 119.752
 117.914
 118.867
 117.914
 116.773
 119.439
 118.726
 120.443
 117.502
 118.796
 128.81
 127.284
 123.963
 121.173
 116.931
 118.554
 120.443
 117.502
 118.796
 119.439
 118.726
 116.773
 116.773
 118.726
 119.439
 118.796
 117.502
 120.443
 118.554
 116.931
 121.173
 123.963
 127.284
 128.81
 118.796
 117.502
 120.443
 118.726
 119.439
 116.773
 117.355
 116
 116.595
 116
 116.595
 117.355
 117.355
 116.595
 116
 116.595
 116
 117.355
 116.595
 118.554
 117.355
 116
 120.305
 120.631
 119.284
 118.098
 117.471
 121.52
 120.8
 120.443
 116.822
 124.121
 123.891
 122.252
 117.623
 124.319
 125.43
 124.387
 124.319
 125.43
 124.387
 124.121
 123.891
 122.252
 117.623
 121.52
 120.8
 120.443
 116.822
 120.305
 120.631
 119.284
 118.098
 117.471
 118.554
 117.355
 116
 116.595
 128.297
 126.114
 126.184
 125.43
 117.623
 120.443
 117.214
 120.5
 116.822
 119.284
 118.554
 117.502
 119.439
 118.759
 117.218
 118.098
 117.355
 116.11
 118.796
 118.726
 116.773
 117.056
 117.471
 116
 116.595
 128.297
 126.114
 125.43
 126.184
 120.443
 117.623
 118.554
 119.284
 116.822
 120.5
 117.214
 116.11
 117.355
 118.098
 117.218
 118.759
 119.439
 117.502
 116.595
 116
 117.471
 117.056
 116.773
 118.726
 118.796
 130.586
 126.184
 120.915
 124.319
 125.43
 124.387
 123.157
 121.869
 124.137
 124.121
 123.891
 122.252
 117.623
 121.74
 121.52
 120.8
 120.443
 117.914
 120.305
 120.631
 121.52
 117.914
 120.305
 120.631
 124.121
 121.74
 121.52
 120.8
 120.443
 124.137
 124.121
 123.891
 122.252
 117.623
 124.319
 125.43
 124.387
 123.157
 121.869
 130.586
 126.184
 120.915
 131.644
 131.761
 131.644
 120.631
 120.305
 117.914
 120.443
 120.8
 121.52
 121.74
 117.623
 122.252
 123.891
 124.121
 124.137
 121.869
 123.157
 124.387
 125.43
 124.319
 120.915
 126.184
 130.586
 120.915
 126.184
 130.586
 121.869
 123.157
 124.387
 125.43
 124.319
 117.623
 122.252
 123.891
 124.121
 124.137
 120.443
 120.8
 121.52
 121.74
 124.121
 120.631
 120.305
 117.914
 121.52
 124.387
 125.43
 124.319
 117.623
 122.252
 123.891
 124.121
 116.822
 120.443
 120.8
 121.52
 117.471
 118.098
 119.284
 120.631
 120.305
 116
 117.355
 118.554
 116.595
 116.595
 116
 117.355
 118.554
 117.471
 118.098
 119.284
 120.631
 120.305
 116.822
 120.443
 120.8
 121.52
 117.623
 122.252
 123.891
 124.121
 124.387
 125.43
 124.319
 116.595
 116
 117.471
 117.056
 116.773
 118.726
 118.796
 116.11
 117.355
 118.098
 117.218
 118.759
 119.439
 117.502
 118.554
 119.284
 116.822
 120.5
 117.214
 120.443
 117.623
 125.43
 126.184
 126.114
 128.297
 118.796
 118.726
 116.773
 117.056
 117.471
 116
 116.595
 117.502
 119.439
 118.759
 117.218
 118.098
 117.355
 116.11
 117.214
 120.5
 116.822
 119.284
 118.554
 117.623
 120.443
 126.184
 125.43
 126.114
 128.297
 115.501
 115.485
 114.845
 116.11
 116.962
 115.372
 115.485
 118.554
 116.226
 116.638
 116.962
 115.501
 120.631
 119.439
 117.723
 116.226
 116.11
 120.305
 120.008
 119.439
 121.52
 117.914
 121.74
 119.752
 117.914
 120.443
 117.502
 118.796
 124.121
 119.41
 118.867
 121.173
 116.931
 118.554
 119.752
 117.914
 120.443
 117.502
 118.796
 117.218
 117.056
 120.5
 118.759
 116.773
 123.157
 121.869
 117.214
 119.439
 118.726
 116
 118.098
 117.471
 117.218
 117.056
 118.759
 126.114
 126.184
 120.915
 126.114
 126.184
 120.915
 123.157
 118.759
 117.218
 117.056
 118.098
 117.471
 116
 121.869
 117.214