# vtk DataFile Version 2.0
Ray Path Visualization
ASCII
DATASET POLYDATA

POINTS 2 float
 0 0 5
 -0.6 0 3
LINES 1 3
 2 0 1 
CELL_DATA 1
FIELD FieldData 5
LaunchID 1 1 int
 2
ReceiverID 1 1 int
 0
Eabs 1 1 double
 3.70965
EdB 1 1 double
 131.387
Phase 1 1 double
 0.87259
