# vtk DataFile Version 2.0
Ray Path Visualization
ASCII
DATASET POLYDATA

POINTS 1889 float
 0 0 5
 -3.09017 0 0
 -4.95967 0 3.02492
 0 0 5
 3.09017 0 0
 4.95967 0 3.02492
 0 0 5
 0 3.06525 3.10557
 0 0 5
 0 -3.06525 3.10557
 0 0 5
 -3.73607 6.04508 2.69098
 0 0 5
 -4.14058 6.69959 2.44098
 0 0 5
 -3.08156 4.98607 3.09549
 0 0 5
 3.08156 4.98607 3.09549
 0 0 5
 3.73607 6.04508 2.69098
 0 0 5
 4.14058 6.69959 2.44098
 0 0 5
 3.02254 1.15451 3.13197
 0 0 5
 3.02254 -1.15451 3.13197
 0 0 5
 1.90983 3.09017 0
 3.05902 4.94959 3.00861
 0 0 5
 -1.90983 3.09017 0
 -3.05902 4.94959 3.00861
 0 0 5
 0 0 3
 0 0 5
 -1.90983 -3.09017 0
 -3.05902 -4.94959 3.00861
 0 0 5
 1.90983 -3.09017 0
 3.05902 -4.94959 3.00861
 0 0 5
 3.08156 -4.98607 3.09549
 0 0 5
 4.14058 -6.69959 2.44098
 0 0 5
 3.73607 -6.04508 2.69098
 0 0 5
 -4.14058 -6.69959 2.44098
 0 0 5
 -3.73607 -6.04508 2.69098
 0 0 5
 -3.08156 -4.98607 3.09549
 0 0 5
 -3.02254 -1.15451 3.13197
 0 0 5
 -3.02254 1.15451 3.13197
 0 0 5
 -9.53782 9.42552 2.81783
 0 0 5
 -8.55788 8.45712 3.04203
 0 0 5
 -9.04495 8.93845 2.9306
 0 0 5
 -7.57794 7.48872 3.26623
 0 0 5
 -8.06501 7.97005 3.1548
 0 0 5
 -8.55208 8.45138 3.04336
 0 0 5
 -7.08508 7.00166 3.379
 0 0 5
 -6.10514 6.03326 3.6032
 0 0 5
 0 6.07768 3.27346
 0 0 5
 0 7.00301 3.01059
 0 0 5
 0 7.92833 2.74773
 0 0 5
 0 8.85366 2.48486
 0 0 5
 -2.54271 9.19959 3.42852
 0 0 5
 -2.47361 8.94959 3.47123
 0 0 5
 -1.18987 3.94959 3.01351
 0 0 5
 1.18987 3.94959 3.01351
 0 0 5
 2.47361 8.94959 3.47123
 0 0 5
 2.54271 9.19959 3.42852
 0 0 5
 6.10514 6.03326 3.6032
 0 0 5
 7.08508 7.00166 3.379
 0 0 5
 7.57794 7.48872 3.26623
 0 0 5
 8.06501 7.97005 3.1548
 0 0 5
 8.55208 8.45138 3.04336
 0 0 5
 8.55788 8.45712 3.04203
 0 0 5
 9.04495 8.93845 2.9306
 0 0 5
 6.03649 3.03612 3.18142
 0 0 5
 6.78069 3.41042 2.95722
 0 0 5
 7.15499 3.59868 2.84445
 0 0 5
 7.89918 3.97298 2.62025
 0 0 5
 8.64338 4.34728 2.39605
 0 0 5
 6.08156 1.03885 3.3191
 0 0 5
 6.98607 1.19336 3.0691
 0 0 5
 7.89058 1.34787 2.8191
 0 0 5
 8.79508 1.50238 2.5691
 0 0 5
 8.94959 1.52877 2.52639
 0 0 5
 4.94113 -1.14396 0
 7.48872 -1.73377 2.57794
 0 0 5
 4.94113 -1.14396 0
 7.97005 -1.8452 3.06501
 0 0 5
 4.94113 -1.14396 0
 7.85862 -1.8194 2.95225
 0 0 5
 4.94113 -1.14396 0
 8.45138 -1.95664 3.55208
 0 0 5
 3.06525 0 3.10557
 0 0 5
 4.94113 1.14396 0
 7.48872 1.73377 2.57794
 0 0 5
 4.94113 1.14396 0
 7.85862 1.8194 2.95225
 0 0 5
 4.94113 1.14396 0
 7.97005 1.8452 3.06501
 0 0 5
 4.94113 1.14396 0
 8.45138 1.95664 3.55208
 0 0 5
 6.08156 -1.03885 3.3191
 0 0 5
 6.98607 -1.19336 3.0691
 0 0 5
 7.89058 -1.34787 2.8191
 0 0 5
 8.94959 -1.52877 2.52639
 0 0 5
 8.79508 -1.50238 2.5691
 0 0 5
 6.03649 -3.03612 3.18142
 0 0 5
 7.15499 -3.59868 2.84445
 0 0 5
 6.78069 -3.41042 2.95722
 0 0 5
 7.89918 -3.97298 2.62025
 0 0 5
 8.64338 -4.34728 2.39605
 0 0 5
 1.15759 5.05957 -8.88178e-16
 1.8194 7.95225 2.85862
 0 0 5
 1.15759 5.05957 -8.88178e-16
 1.8452 8.06501 2.97005
 0 0 5
 1.15759 5.05957 -8.88178e-16
 1.95797 8.55788 3.45712
 0 0 5
 3.61803 5.8541 8.88178e-16
 5.24615 8.48845 2.25
 0 0 5
 3.61803 5.8541 8.88178e-16
 5.53885 8.96205 2.65451
 0 0 5
 3.61803 5.8541 8.88178e-16
 5.71976 9.25476 2.90451
 0 0 5
 4.27051 3.09017 0
 6.55902 4.74615 2.67943
 0 0 5
 4.27051 3.09017 0
 6.90451 4.99615 3.08394
 0 0 5
 4.27051 3.09017 0
 7.15451 5.17705 3.37664
 0 0 5
 4.27051 3.09017 0
 7.25 5.24615 3.48845
 0 0 5
 2.5148 1.50633 0
 3.97298 2.37975 2.89918
 0 0 5
 2.5148 1.50633 0
 4.08575 2.44729 3.12338
 0 0 5
 3.21976 2.75 3.01008
 0 0 5
 -1.15759 5.05957 -8.88178e-16
 -1.8452 8.06501 2.97005
 0 0 5
 -1.15759 5.05957 -8.88178e-16
 -1.95797 8.55788 3.45712
 0 0 5
 -1.15759 5.05957 -8.88178e-16
 -1.8194 7.95225 2.85862
 0 0 5
 0 3.09017 0
 0 4.95967 3.02492
 0 0 5
 -1.4204 0 0
 -2.25227 0 2.92833
 0 0 5
 -0.854102 1.38197 0
 -1.34787 2.1809 2.89058
 0 0 5
 -2.5148 1.50633 0
 -3.97298 2.37975 2.89918
 0 0 5
 -2.5148 1.50633 0
 -4.08575 2.44729 3.12338
 0 0 5
 0.854102 1.38197 0
 1.34787 2.1809 2.89058
 0 0 5
 0.854102 1.38197 0
 1.37426 2.22361 3.04508
 0 0 5
 1.4204 0 0
 2.25227 0 2.92833
 0 0 5
 -2.5148 -1.50633 0
 -4.08575 -2.44729 3.12338
 0 0 5
 -2.5148 -1.50633 0
 -3.97298 -2.37975 2.89918
 0 0 5
 -0.854102 -1.38197 0
 -1.37426 -2.22361 3.04508
 0 0 5
 -0.854102 -1.38197 0
 -1.34787 -2.1809 2.89058
 0 0 5
 1.15759 -5.05957 -8.88178e-16
 1.8194 -7.95225 2.85862
 0 0 5
 1.15759 -5.05957 -8.88178e-16
 1.95797 -8.55788 3.45712
 0 0 5
 1.15759 -5.05957 -8.88178e-16
 1.8452 -8.06501 2.97005
 0 0 5
 0 -3.09017 0
 0 -4.95967 3.02492
 0 0 5
 -1.15759 -5.05957 -8.88178e-16
 -1.95797 -8.55788 3.45712
 0 0 5
 -1.15759 -5.05957 -8.88178e-16
 -1.8452 -8.06501 2.97005
 0 0 5
 -1.15759 -5.05957 -8.88178e-16
 -1.8194 -7.95225 2.85862
 0 0 5
 0.854102 -1.38197 0
 1.34787 -2.1809 2.89058
 0 0 5
 2.5148 -1.50633 0
 4.08575 -2.44729 3.12338
 0 0 5
 2.5148 -1.50633 0
 3.97298 -2.37975 2.89918
 0 0 5
 1.18987 -3.94959 3.01351
 0 0 5
 3.61803 -5.8541 8.88178e-16
 5.83156 -9.43566 3.05902
 0 0 5
 3.61803 -5.8541 8.88178e-16
 5.53885 -8.96205 2.65451
 0 0 5
 3.61803 -5.8541 8.88178e-16
 5.24615 -8.48845 2.25
 0 0 5
 3.61803 -5.8541 8.88178e-16
 6.01246 -9.72837 3.30902
 0 0 5
 3.61803 -5.8541 8.88178e-16
 5.71976 -9.25476 2.90451
 0 0 5
 3.61803 -5.8541 8.88178e-16
 6.19336 -10.0211 3.55902
 0 0 5
 3.21976 -2.75 3.01008
 0 0 5
 6.10514 -6.03326 3.6032
 0 0 5
 7.08508 -7.00166 3.379
 0 0 5
 8.55208 -8.45138 3.04336
 0 0 5
 8.06501 -7.97005 3.1548
 0 0 5
 7.57794 -7.48872 3.26623
 0 0 5
 9.53201 -9.41978 2.81916
 0 0 5
 9.04495 -8.93845 2.9306
 0 0 5
 8.55788 -8.45712 3.04203
 0 0 5
 4.27051 -3.09017 0
 6.55902 -4.74615 2.67943
 0 0 5
 4.27051 -3.09017 0
 7.15451 -5.17705 3.37664
 0 0 5
 4.27051 -3.09017 0
 6.90451 -4.99615 3.08394
 0 0 5
 4.27051 -3.09017 0
 7.25 -5.24615 3.48845
 0 0 5
 0 -8.85366 2.48486
 0 0 5
 0 -7.92833 2.74773
 0 0 5
 0 -7.00301 3.01059
 0 0 5
 0 -6.07768 3.27346
 0 0 5
 2.47361 -8.94959 3.47123
 0 0 5
 2.79271 -10.1041 3.27401
 0 0 5
 2.54271 -9.19959 3.42852
 0 0 5
 -1.18987 -3.94959 3.01351
 0 0 5
 -2.79271 -10.1041 3.27401
 0 0 5
 -2.54271 -9.19959 3.42852
 0 0 5
 -2.47361 -8.94959 3.47123
 0 0 5
 -10.0249 -9.90685 2.7064
 0 0 5
 -9.53782 -9.42552 2.81783
 0 0 5
 -9.53201 -9.41978 2.81916
 0 0 5
 -9.04495 -8.93845 2.9306
 0 0 5
 -8.55788 -8.45712 3.04203
 0 0 5
 -8.55208 -8.45138 3.04336
 0 0 5
 -8.06501 -7.97005 3.1548
 0 0 5
 -7.57794 -7.48872 3.26623
 0 0 5
 -7.08508 -7.00166 3.379
 0 0 5
 -6.10514 -6.03326 3.6032
 0 0 5
 -8.79508 1.50238 2.5691
 0 0 5
 -8.94959 1.52877 2.52639
 0 0 5
 -7.89058 1.34787 2.8191
 0 0 5
 -6.98607 1.19336 3.0691
 0 0 5
 -6.08156 1.03885 3.3191
 0 0 5
 -8.64338 4.34728 2.39605
 0 0 5
 -7.89918 3.97298 2.62025
 0 0 5
 -6.78069 3.41042 2.95722
 0 0 5
 -7.15499 3.59868 2.84445
 0 0 5
 -6.03649 3.03612 3.18142
 0 0 5
 -8.64338 -4.34728 2.39605
 0 0 5
 -7.89918 -3.97298 2.62025
 0 0 5
 -7.15499 -3.59868 2.84445
 0 0 5
 -6.78069 -3.41042 2.95722
 0 0 5
 -6.03649 -3.03612 3.18142
 0 0 5
 -8.94959 -1.52877 2.52639
 0 0 5
 -8.79508 -1.50238 2.5691
 0 0 5
 -7.89058 -1.34787 2.8191
 0 0 5
 -6.98607 -1.19336 3.0691
 0 0 5
 -6.08156 -1.03885 3.3191
 0 0 5
 -4.94113 1.14396 0
 -8.45138 1.95664 3.55208
 0 0 5
 -4.94113 1.14396 0
 -7.85862 1.8194 2.95225
 0 0 5
 -4.94113 1.14396 0
 -7.97005 1.8452 3.06501
 0 0 5
 -4.94113 1.14396 0
 -7.48872 1.73377 2.57794
 0 0 5
 -3.06525 0 3.10557
 0 0 5
 -4.94113 -1.14396 0
 -8.45138 -1.95664 3.55208
 0 0 5
 -4.94113 -1.14396 0
 -7.97005 -1.8452 3.06501
 0 0 5
 -4.94113 -1.14396 0
 -7.85862 -1.8194 2.95225
 0 0 5
 -4.94113 -1.14396 0
 -7.48872 -1.73377 2.57794
 0 0 5
 -3.21976 2.75 3.01008
 0 0 5
 -4.27051 3.09017 0
 -7.25 5.24615 3.48845
 0 0 5
 -4.27051 3.09017 0
 -6.90451 4.99615 3.08394
 0 0 5
 -4.27051 3.09017 0
 -7.15451 5.17705 3.37664
 0 0 5
 -4.27051 3.09017 0
 -6.55902 4.74615 2.67943
 0 0 5
 -3.61803 5.8541 8.88178e-16
 -5.71976 9.25476 2.90451
 0 0 5
 -3.61803 5.8541 8.88178e-16
 -5.24615 8.48845 2.25
 0 0 5
 -3.61803 5.8541 8.88178e-16
 -5.53885 8.96205 2.65451
 0 0 5
 -3.61803 -5.8541 8.88178e-16
 -6.19336 -10.0211 3.55902
 0 0 5
 -3.61803 -5.8541 8.88178e-16
 -6.01246 -9.72837 3.30902
 0 0 5
 -3.61803 -5.8541 8.88178e-16
 -5.71976 -9.25476 2.90451
 0 0 5
 -3.61803 -5.8541 8.88178e-16
 -5.83156 -9.43566 3.05902
 0 0 5
 -3.61803 -5.8541 8.88178e-16
 -5.53885 -8.96205 2.65451
 0 0 5
 -3.61803 -5.8541 8.88178e-16
 -5.24615 -8.48845 2.25
 0 0 5
 -4.27051 -3.09017 0
 -7.25 -5.24615 3.48845
 0 0 5
 -4.27051 -3.09017 0
 -7.15451 -5.17705 3.37664
 0 0 5
 -4.27051 -3.09017 0
 -6.90451 -4.99615 3.08394
 0 0 5
 -4.27051 -3.09017 0
 -6.55902 -4.74615 2.67943
 0 0 5
 -3.21976 -2.75 3.01008
 0 0 5
 -10.1318 7.95763 3.9519
 0 0 5
 -5.70666 9.23357 3.28078
 0 0 5
 -5.00076 8.0914 3.49344
 0 0 5
 -5.43703 8.7973 3.36201
 0 0 5
 -6.54835 8.18674 2.44156
 0 0 5
 -7.00872 8.7623 2.2617
 0 0 5
 -5.71975 7.15082 2.7653
 0 0 5
 -6.18011 7.72637 2.58543
 0 0 5
 -4.89114 6.1149 3.08903
 0 0 5
 -5.35151 6.69045 2.90917
 0 0 5
 -4.06253 5.07898 3.41277
 0 0 5
 0 4.08739 3.19826
 0 0 5
 0 4.9247 2.82917
 0 0 5
 -0.720107 5.05561 3.04062
 0 0 5
 -0.841797 5.90995 2.70951
 0 0 5
 -0.974401 7.09117 3.38483
 0 0 5
 -1.10273 8.02509 3.17211
 0 0 5
 -1.23106 8.959 2.95939
 0 0 5
 -1.877 4.12922 3.16495
 0 0 5
 -2.20074 4.8414 2.84846
 0 0 5
 -1.75038 6.073 3.00321
 0 0 5
 -1.99234 6.91251 2.72718
 0 0 5
 -2.23431 7.75201 2.45116
 0 0 5
 -3.53367 8.15285 2.81607
 0 0 5
 -3.87777 8.94674 2.60341
 0 0 5
 -2.69634 6.22097 3.33357
 0 0 5
 -3.04044 7.01486 3.12091
 0 0 5
 -3.38453 7.80875 2.90824
 0 0 5
 0.720107 5.05561 3.04062
 0 0 5
 0.841797 5.90995 2.70951
 0 0 5
 2.69634 6.22097 3.33357
 0 0 5
 3.04044 7.01486 3.12091
 0 0 5
 3.38453 7.80875 2.90824
 0 0 5
 3.53367 8.15285 2.81607
 0 0 5
 3.87777 8.94674 2.60341
 0 0 5
 1.75038 6.073 3.00321
 0 0 5
 1.99234 6.91251 2.72718
 0 0 5
 2.23431 7.75201 2.45116
 0 0 5
 1.877 4.12922 3.16495
 0 0 5
 2.20074 4.8414 2.84846
 0 0 5
 0.974401 7.09117 3.38483
 0 0 5
 1.10273 8.02509 3.17211
 0 0 5
[...]
CELL_DATA 757
FIELD FieldData 5
LaunchID 1 757 int
 2
 3
 5
 7
 17
 17
 17
 19
 19
 19
 24
 25
 26
 27
 28
 29
 30
 31
 31
 31
 34
 34
 34
 40
 41
 58
 58
 58
 58
 58
 58
 58
 58
 60
 60
 60
 60
 61
 61
 62
 67
 68
 68
 71
 71
 71
 71
 71
 71
 71
 84
 84
 84
 84
 84
 85
 85
 85
 85
 85
 86
 86
 86
 86
 87
 88
 88
 88
 88
 89
 89
 89
 89
 89
 90
 90
 90
 90
 90
 91
 91
 91
 92
 92
 92
 93
 93
 93
 93
 94
 94
 95
 96
 96
 96
 97
 98
 99
 100
 100
 101
 101
 102
 103
 103
 104
 104
 105
 105
 105
 106
 107
 107
 107
 108
 109
 109
 110
 111
 111
 111
 111
 111
 111
 112
 113
 113
 113
 113
 113
 113
 113
 113
 114
 114
 114
 114
 115
 115
 115
 115
 116
 116
 116
 122
 123
 123
 123
 126
 126
 126
 126
 126
 126
 126
 126
 126
 126
 149
 149
 149
 149
 149
 150
 150
 150
 150
 150
 151
 151
 151
 151
 151
 152
 152
 152
 152
 152
 153
 153
 153
 153
 154
 155
 155
 155
 155
 156
 157
 157
 157
 157
 158
 158
 158
 159
 159
 159
 159
 159
 159
 160
 160
 160
 160
 161
 218
 220
 220
 220
 222
 222
 222
 222
 222
 222
 222
 225
 225
 226
 226
 229
 229
 229
 231
 231
 232
 232
 232
 233
 233
 233
 233
 233
 252
 252
 253
 253
 253
 253
 253
 254
 254
 254
 255
 255
 256
 256
 256
 264
 264
 264
 264
 264
 264
 264
 266
 266
 266
 318
 320
 320
 321
 321
 321
 321
 321
 322
 322
 325
 325
 326
 326
 326
 326
 327
 327
 329
 330
 331
 332
 335
 338
 338
 339
 339
 339
 339
 339
 340
 340
 343
 343
 343
 343
 344
 345
 346
 346
 346
 347
 347
 347
 347
 347
 348
 348
 348
 348
 350
 351
 351
 351
 352
 352
 353
 353
 354
 354
 354
 354
 354
 355
 355
 355
 355
 356
 356
 356
 357
 357
 358
 358
 358
 358
 358
 358
 359
 360
 360
 360
 360
 361
 361
 362
 363
 363
 363
 363
 363
 364
 364
 364
 364
 364
 365
 365
 366
 367
 367
 367
 367
 368
 368
 369
 369
 370
 370
 370
 370
 371
 371
 372
 372
 373
 373
 373
 374
 375
 375
 376
 377
 378
 379
 379
 379
 379
 380
 380
 381
 381
 382
 383
 383
 383
 384
 384
 385
 385
 386
 387
 388
 389
 389
 390
 391
 391
 392
 392
 393
 394
 394
 395
 395
 396
 396
 396
 396
 397
 398
 399
 399
 399
 400
 400
 400
 400
 401
 401
 401
 402
 402
 403
 403
 404
 404
 404
 404
 405
 405
 405
 405
 406
 406
 407
 407
 408
 409
 409
 410
 411
 412
 412
 412
 412
 413
 413
 414
 414
 415
 415
 416
 416
 417
 419
 419
 420
 422
 422
 423
 423
 423
 423
 423
 423
 424
 424
 424
 425
 425
 425
 425
 425
 425
 427
 428
 428
 429
 429
 429
 429
 429
 429
 429
 430
 430
 430
 430
 431
 432
 432
 432
 433
 433
 434
 434
 434
 435
 435
 435
 435
 435
 436
 436
 437
 437
 437
 437
 438
 438
 438
 438
 438
 439
 439
 439
 439
 439
 440
 440
 441
 441
 443
 443
 443
 443
 443
 444
 445
 445
 445
 446
 446
 446
 446
 446
 446
 458
 458
 458
 458
 458
 459
 467
 467
 468
 468
 468
 468
 468
 468
 469
 469
 469
 470
 470
 471
 471
 471
 471
 471
 475
 479
 479
 479
 479
 479
 479
 479
 480
 481
 481
 481
 481
 481
 580
 581
 581
 581
 582
 583
 584
 584
 585
 585
 585
 585
 585
 586
 586
 587
 587
 587
 588
 589
 589
 590
 590
 590
 590
 590
 591
 591
 592
 593
 594
 594
 595
 595
 595
 595
 596
 596
 598
 598
 598
 599
 599
 599
 600
 600
 600
 601
 601
 601
 603
 603
 603
 603
 603
 606
 606
 606
 606
 606
 606
 606
 607
 608
 608
 609
 609
 609
 609
 610
 611
 611
 611
 612
 612
 613
 613
 613
 614
 614
 614
 614
 614
 615
 615
 615
 615
 616
 617
 619
 619
 619
 619
 619
 620
 620
 620
 621
 621
 621
 621
 621
 621
 621
 622
 622
 622
 622
 622
 623
 623
 624
 624
 625
 625
 625
 626
 626
 626
 626
 626
 626
 628
 629
 629
 629
 630
 630
 630
 630
 631
 631
 631
 631
 631
 632
 632
 632
 633
 633
 634
 634
 634
 634
 634
 634
 634
 635
 636
 636
 636
 636
 637
 637
 638
 639
 639
 639
 639
 639
 640
 640
 640
 640
 640
 640
 640
 641
 641
 641
 641
 641
ReceiverID 1 757 int
 110
 310
 213
 207
 136
 137
 155
 275
 296
 297
 271
 269
 275
 155
 210
 145
 265
 265
 283
 284
 123
 124
 145
 149
 151
 19
 38
 39
 57
 58
 59
 77
 96
 216
 217
 218
 219
 159
 179
 194
 234
 259
 279
 336
 357
 377
 378
 379
 398
 399
 333
 353
 354
 374
 394
 331
 351
 371
 391
 392
 348
 368
 369
 388
 270
 352
 371
 372
 392
 329
 349
 369
 388
 389
 327
 346
 347
 366
 386
 238
 258
 259
 318
 319
 339
 335
 355
 356
 375
 292
 293
 273
 178
 179
 198
 215
 170
 192
 132
 133
 232
 252
 250
 127
 128
 168
 188
 222
 241
 242
 205
 161
 162
 182
 228
 287
 288
 226
 300
 301
 302
 320
 321
 340
 267
 324
 343
 361
 362
 363
 380
 381
 382
 325
 344
 345
 365
 201
 202
 203
 204
 241
 260
 261
 186
 140
 141
 161
 0
 1
 20
 21
 22
 41
 42
 43
 63
 84
 31
 32
 51
 71
 91
 34
 54
 73
 74
 93
 26
 46
 66
 67
 87
 28
 29
 49
 69
 89
 32
 51
 52
 72
 150
 28
 48
 49
 68
 153
 55
 75
 76
 95
 99
 118
 119
 60
 80
 81
 100
 101
 102
 45
 64
 65
 85
 147
 18
 99
 118
 119
 78
 79
 97
 98
 116
 117
 135
 214
 215
 195
 196
 197
 198
 199
 174
 175
 176
 177
 178
 138
 139
 156
 157
 158
 235
 236
 276
 277
 278
 298
 299
 256
 257
 258
 254
 255
 237
 238
 239
 295
 316
 317
 337
 338
 358
 359
 318
 319
 339
 395
 291
 311
 332
 352
 372
 373
 393
 292
 312
 329
 349
 250
 350
 370
 390
 331
 351
 389
 387
 393
 391
 385
 288
 308
 328
 348
 367
 368
 387
 289
 309
 330
 350
 370
 390
 239
 233
 296
 297
 317
 232
 278
 279
 298
 299
 256
 257
 276
 277
 253
 312
 332
 333
 291
 311
 394
 395
 251
 353
 354
 373
 374
 231
 273
 274
 294
 313
 314
 334
 295
 315
 334
 355
 375
 376
 396
 397
 274
 294
 314
 315
 335
 293
 313
 272
 336
 337
 338
 357
 358
 376
 377
 396
 397
 398
 379
 399
 199
 212
 217
 218
 219
 175
 195
 196
 197
 156
 157
 176
 177
 236
 237
 235
 255
 130
 150
 190
 151
 111
 131
 191
 171
 190
 134
 153
 154
 191
 152
 172
 173
 174
 271
 230
 270
 290
 253
 254
 252
 272
 230
 251
 231
 193
 194
 212
 233
 234
 109
 129
 149
 166
 167
 148
 168
 126
 146
 147
 189
 169
 189
 220
 221
 240
 201
 202
 203
 208
 160
 180
 181
 225
 245
 223
 224
 243
 244
 263
 264
 143
 144
 163
 164
 183
 184
 165
 185
 269
 289
 309
 229
 249
 229
 266
 267
 286
 248
 268
 246
 247
 186
 187
 226
 227
 208
 227
 260
 247
 245
 246
 228
 261
 262
 280
 281
 282
 283
 284
 303
 326
 345
 364
 365
 383
 384
 268
 287
 307
 285
 303
 304
 322
 323
 341
 342
 286
 305
 306
 325
 266
 308
 327
 328
 285
 305
 306
 307
 326
 249
 346
 347
 366
 367
 385
 386
 360
 361
 380
 381
 363
 364
 382
 383
 384
 322
 323
 324
 342
 343
 205
 206
 224
 225
 220
 221
 222
 223
 240
 200
 242
 243
 244
 262
 263
 264
 280
 281
 282
 301
 302
 320
 321
 340
 360
 184
 185
 120
 121
 122
 142
 143
 144
 162
 163
 164
 165
 166
 160
 180
 181
 182
 183
 2
 61
 62
 82
 83
 103
 104
 125
 40
 60
 80
 81
 101
 102
 14
 15
 16
 35
 11
 12
 112
 132
 33
 52
 53
 72
 92
 111
 131
 4
 5
 25
 6
 109
 129
 27
 47
 48
 68
 88
 108
 128
 8
 9
 71
 91
 30
 50
 70
 170
 69
 89
 11
 12
 31
 13
 14
 33
 6
 7
 27
 8
 9
 29
 10
 30
 50
 70
 90
 17
 36
 37
 55
 56
 75
 94
 152
 113
 133
 95
 114
 115
 134
 154
 92
 93
 112
 115
 135
 94
 113
 114
 53
 54
 73
 74
 171
 15
 16
 34
 35
 193
 173
 138
 139
 158
 159
 192
 117
 136
 137
 17
 18
 36
 37
 38
 56
 57
 77
 78
 96
 97
 98
 39
 59
 140
 187
 103
 123
 124
 120
 121
 122
 141
 142
 188
 167
 87
 88
 108
 4
 5
 25
 26
 46
 47
 66
 67
 169
 86
 106
 107
 105
 125
 3
 23
 24
 44
 45
 65
 86
 146
 85
 105
 106
 126
 107
 127
 148
 62
 63
 82
 83
 84
 2
 3
 22
 23
 24
 43
 44
 0
 20
 21
 40
 41
Eabs 1 757 double
 0.178584
 0.087323
 1.82857
 1.82857
 1.16734
 0.906704
 1.01499
 1.26185
 0.923568
 0.886808
 1.78346
 1.78346
 1.26185
 1.01499
 0
 1.01499
 1.26185
 1.26185
 0.886808
 0.923568
 0.906704
 1.16734
 1.01499
 1.81608
 1.81608
 0.562752
 0.562136
 0.656273
 0.698384
 0.665519
 0.570254
 0.774985
 0.95282
 1.17932
 0.958111
 0.899066
 0.851303
 0.907782
 0.809775
 1.49083
 1.54924
 0.81619
 0.744443
 0.86502
 0.76341
 0.715406
 0.665519
 0.660006
 0.660196
 0.566092
 1.11053
 1.00795
 0.86158
 0.861284
 0.733445
 1.13646
 0.961914
 0.852173
 0.849785
 0.789777
 0.962026
 0.833896
 0.852173
 0.789777
 1.89415
 0.962026
 0.852173
 0.833896
 0.789777
 1.13646
 0.961914
 0.852173
 0.789777
 0.849785
 1.11053
 0.86158
 1.00795
 0.861284
 0.733445
 0.857102
 0.822064
 0.81619
 0.743521
 0.774453
 0.680186
 0.96836
 0.87255
 0.0576888
 0.739948
 1.44678
 1.41753
 1.58412
 1.00966
 0.809775
 1.05227
 1.38981
 1.9577
 1.95072
 1.50418
 1.18577
 2.00101
 0.15757
 1.87024
 1.18577
 1.50418
 0.250172
 1.95072
 0.857102
 0.81619
 0.822064
 1.38981
 0.809775
 1.00966
 1.05227
 2.00101
 1.41753
 1.44678
 1.54924
 0.0423869
 0.774453
 0.743521
 0.664118
 0.680186
 0.640676
 1.58412
 0.86502
 0.76341
 0.660006
 0.665519
 0.715406
 0.543516
 0.566092
 0.660196
 0.96836
 0.0576888
 0.87255
 0.739948
 0.851303
 0.899066
 0.958111
 1.17932
 0.81619
 0.747081
 0.744443
 1.49083
 0.663827
 0.907782
 0.809775
 0.492506
 0.562752
 0.618714
 0.656273
 0.562136
 0.570254
 0.665519
 0.698384
 0.774985
 0.95282
 0.711683
 0.813107
 1.03282
 1.17293
 1.26544
 0.812932
 0.702881
 0.827426
 1.01322
 0.95734
 0.812932
 0.702881
 1.01322
 0.827426
 0.95734
 0.813107
 0.711683
 1.03282
 1.17293
 1.26544
 0.813107
 1.03282
 1.01578
 1.10348
 1.71337
 0.813107
 1.01578
 1.03282
 1.10348
 1.29034
 0.911171
 0.853462
 0.157459
 0.799174
 0.73701
 0.921437
 0.64335
 0.574708
 0.631175
 0.73701
 0.13526
 0.64335
 0.921437
 0.911171
 0.157459
 0.853462
 0.799174
 1.29034
 0.620669
 0.73701
 0.921437
 0.64335
 0.675492
 0.651536
 0.804964
 0.663242
 0.933613
 0.822986
 1.15971
 1.58677
 1.38981
 1.21508
 1.23438
 1.16914
 1.05227
 0.787545
 1.51964
 1.42927
 1.25396
 1.07278
 1.00966
 0.702547
 0.810206
 0.902272
 0.803591
 0.876363
 1.36473
 1.09477
 1.14211
 1.01296
 0.868509
 0.872048
 0.736716
 1.07461
 0.956256
 0.822064
 1.44646
 1.18418
 0.981192
 0.857102
 0.83046
 1.12712
 0.933613
 0.877364
 0.799085
 0.777489
 0.708116
 0.651536
 0.743521
 0.774453
 0.680186
 0.775142
 1.58372
 1.34889
 1.08093
 0.962026
 0.833896
 0.859279
 0.721733
 1.44678
 1.16947
 1.13646
 0.961914
 1.87024
 0.968468
 0.898811
 0.84345
 1.13646
 0.961914
 0.849785
 0.721733
 0.721733
 0.849785
 0.775142
 1.44678
 1.16947
 1.08093
 0.962026
 0.859279
 0.833896
 0.721733
 1.58372
 1.34889
 1.18209
 0.968468
 0.898811
 0.84345
 0.83046
 1.66923
 0.923568
 0.886808
 0.877364
 2.00101
 0.868509
 0.744443
 0.872048
 0.736716
 1.07461
 0.956256
 1.14211
 1.01296
 1.75096
 1.16947
 1.08093
 1.11053
 1.58372
 1.34889
 0.733445
 0.775142
 1.85869
 1.00795
 0.86158
 0.859279
 0.861284
 1.66986
 1.58412
 1.40704
 1.27438
 1.2497
 1.09019
 0.963819
 1.12712
 0.960155
 0.963819
 0.87255
 0.739948
 0.787802
 0.651963
 0.628676
 1.40704
 1.27438
 1.09019
 0.960155
 0.96836
 1.41753
 1.2497
 1.72516
 0.86502
 0.799085
 0.777489
 0.76341
 0.708116
 0.787802
 0.715406
 0.651963
 0.628676
 0.660196
 0.660006
 0.566092
 0.787545
 1.89577
 0.958111
 0.899066
 0.851303
 1.42927
 1.21508
 1.23438
 1.16914
 0.902272
 0.803591
 1.25396
 1.07278
 1.09477
 0.981192
 1.36473
 1.18418
 0.132595
 1.71337
 1.41602
 1.81608
 1.20651
 1.53893
 1.69047
 1.8372
 1.41602
 1.15214
 1.29034
 1.15933
 1.69047
 1.54151
 0.151807
 1.51595
 1.51964
 1.78346
 1.42965
 1.89415
 0.0781871
 1.75096
 1.44646
 0.15757
 1.72516
 1.42965
 1.85869
 1.66986
 1.75897
 1.49083
 1.89577
 1.66923
 1.54924
 1.20651
 1.53893
 1.81608
 1.51964
 1.51595
 1.54151
 0.250172
 1.15214
 1.15933
 1.29034
 1.69047
 1.8372
 1.69047
 0.759172
 0.83046
 0.774081
 0.851303
 0.899066
 0.958111
 1.89577
 0.629551
 0.719347
 0.787545
 1.36473
 1.18418
 0.981192
 1.09477
 0.956256
 1.07461
 1.01296
 1.14211
 0.803591
 0.902272
 1.07278
 1.25396
 1.16914
 1.23438
 1.42927
 1.21508
 1.78346
 1.58372
 1.34889
 1.66986
 1.85869
 1.66986
 1.40704
 1.58412
 1.27438
 0.0899095
 1.72516
 1.44646
 1.75096
 1.49083
 1.75897
 1.54924
 1.66923
 1.89577
 1.66923
 0.747081
 1.75096
 1.18418
 1.44646
 2.00101
 0.744443
 0.868509
 0.669372
 0.736716
 0.872048
 0.886808
 0.923568
 0.877364
 0.963819
 0.87255
 0.787802
 0.739948
 0.628676
 0.651963
 1.72516
 1.41753
 1.2497
 1.12712
 0.877364
 0.933613
 0.777489
 0.799085
 0.651536
 0.708116
 1.27438
 0.960155
 1.09019
 0.96836
 1.40704
 1.16947
 1.11053
 1.08093
 1.12712
 0.960155
 1.09019
 1.2497
 0.963819
 1.85869
 0.86158
 1.00795
 0.861284
 0.859279
 0.775142
 0.733445
 0.586481
 0.660006
 0.543516
 0.566092
 0.715406
 0.787802
 0.660196
 0.628676
 0.651963
 0.777489
 0.799085
 0.86502
 0.708116
 0.76341
 1.38981
 1.58677
 1.09477
 1.36473
 0.759172
 0.83046
 0.857102
 0.981192
 0.774081
 0.753604
 0.822064
 0.956256
 1.07461
 0.868509
 1.01296
 1.14211
 0.669372
 0.736716
 0.872048
 0.774453
 0.743521
 0.664118
 0.680186
 0.640676
 0.586481
 1.23438
 1.21508
 0.738965
 0.810206
 0.702547
 0.876363
 0.803591
 0.902272
 1.00966
 1.07278
 1.25396
 1.42927
 1.51964
 0.629551
 0.719347
 0.787545
 1.05227
 1.16914
 0.620669
 0.651536
 0.675492
 0.663242
 0.804964
 0.822986
 0.933613
 1.15971
 0.620161
 0.574708
 0.631175
 0.73701
 0.64335
 0.921437
 0.755127
 0.766759
 0.617734
 0.655274
 0.760247
 0.651869
 1.45961
 1.50418
 0.900922
 1.01578
 0.872158
 1.10348
 1.27614
 1.20651
 1.53893
 0.617734
 0.766759
 0.655274
 0.755127
 1.20651
 1.53893
 0.900922
 0.872158
 1.01578
 1.10348
 1.27614
 1.45961
 1.50418
 0.651869
 0.760247
 1.17293
 1.26544
 0.729013
 0.933467
 1.1821
 1.9577
 1.17293
 1.26544
 0.760247
 0.651869
 0.711683
 0.147256
 0.755127
 0.900922
 0.755127
 0.147256
 0.900922
 0.651869
 0.760247
 0.711683
 0.734021
 0.729013
 0.933467
 1.1821
 1.18209
 0.555479
 0.778661
 0.734237
 0.911171
 0.660399
 0.853462
 1.16572
 1.54151
 0.994555
 1.18577
 0.799174
 1.18324
 1.14076
 1.15214
 1.15933
 1.27614
 0.95734
 1.45961
 1.14076
 1.15971
 1.16572
 0.994555
 1.18324
 0.872158
 0.702881
 0.827426
 1.01322
 1.8372
 0.766759
 0.617734
 0.812932
 0.655274
 1.75897
 1.51595
 0.702547
 0.810206
 0.876363
 0.907782
 1.95072
 0.822986
 1.16734
 0.906704
 0.555479
 0.620669
 0.778661
 0.734237
 0.562136
 0.660399
 0.698384
 0.774985
 0.675492
 0.95282
 0.804964
 0.663242
 0.656273
 0.570254
 0.663827
 1.75897
 0.822986
 0.906704
 1.16734
 0.738965
 0.810206
 0.702547
 0.907782
 0.876363
 1.95072
 1.51595
 0.95734
 1.27614
 1.45961
 0.617734
 0.766759
 0.655274
 0.812932
 0.702881
 0.872158
 1.01322
 0.827426
 1.8372
 1.16572
 1.18324
 0.994555
 1.14076
 1.15971
 0.555479
 0.734237
 0.778661
 0.660399
 0.911171
 0.853462
 1.16572
 1.15933
 0.799174
 1.14076
 1.18324
 1.15214
 0.994555
 1.18577
 1.54151
 0.675492
 0.774985
 0.663242
 0.804964
 0.95282
 0.620669
 0.555479
 0.562136
 0.734237
 0.778661
 0.698384
 0.660399
 0.492506
 0.618714
 0.656273
 0.620161
 0.570254
EdB 1 757 double
 52.5184
 49.4113
 62.6211
 62.6211
 60.672
 59.5747
 60.0646
 61.0101
 59.6547
 59.4783
 62.5126
 62.5126
 61.0101
 60.0646
 -300
 60.0646
 61.0101
 61.0101
 59.4783
 59.6547
 59.5747
 60.672
 60.0646
 62.5913
 62.5913
 57.5032
 57.4984
 58.1708
 58.4409
 58.2316
 57.5607
 58.8929
 59.7901
 60.7163
 59.8142
 59.5379
 59.3008
 59.5798
 59.0836
 61.7343
 61.9012
 59.1179
 58.7183
 59.3703
 58.8276
 58.5455
 58.2316
 58.1955
 58.1967
 57.5289
 60.4553
 60.0344
 59.353
 59.3515
 58.6537
 60.5555
 59.8314
 59.3053
 59.2931
 58.975
 59.8319
 59.2111
 59.3053
 58.975
 62.7742
 59.8319
 59.3053
 59.2111
 58.975
 60.5555
 59.8314
 59.3053
 58.975
 59.2931
 60.4553
 59.353
 60.0344
 59.3515
 58.6537
 59.3303
 59.1491
 59.1179
 58.7129
 58.89
 58.3263
 59.8604
 59.4079
 47.6109
 58.692
 61.604
 61.5153
 61.9979
 60.0417
 59.0836
 60.2213
 61.4296
 62.9175
 62.9019
 61.773
 60.74
 63.0125
 51.9747
 62.719
 60.74
 61.773
 53.9824
 62.9019
 59.3303
 59.1179
 59.1491
 61.4296
 59.0836
 60.0417
 60.2213
 63.0125
 61.5153
 61.604
 61.9012
 46.2723
 58.89
 58.7129
 58.2225
 58.3263
 58.0664
 61.9979
 59.3703
 58.8276
 58.1955
 58.2316
 58.5455
 57.3521
 57.5289
 58.1967
 59.8604
 47.6109
 59.4079
 58.692
 59.3008
 59.5379
 59.8142
 60.7163
 59.1179
 58.7337
 58.7183
 61.7343
 58.2206
 59.5798
 59.0836
 56.9241
 57.5032
 57.9149
 58.1708
 57.4984
 57.5607
 58.2316
 58.4409
 58.8929
 59.7901
 58.5229
 59.1015
 60.1402
 60.6927
 61.0224
 59.1005
 58.4688
 59.1773
 60.057
 59.8107
 59.1005
 58.4688
 60.057
 59.1773
 59.8107
 59.1015
 58.5229
 60.1402
 60.6927
 61.0224
 59.1015
 60.1402
 60.068
 60.4277
 62.3385
 59.1015
 60.068
 60.1402
 60.4277
 61.107
 59.596
 59.3118
 51.9717
 59.0264
 58.6747
 59.6447
 58.0845
 57.5945
 58.0015
 58.6747
 51.3117
 58.0845
 59.6447
 59.596
 51.9717
 59.3118
 59.0264
 61.107
 57.9286
 58.6747
 59.6447
 58.0845
 58.2962
 58.1394
 59.0578
 58.2167
 59.7017
 59.1539
 60.6435
 62.0051
 61.4296
 60.8461
 60.9145
 60.6786
 60.2213
 58.9628
 61.8174
 61.5511
 60.9828
 60.3051
 60.0417
 58.4668
 59.086
 59.5534
 59.0503
 59.4268
 61.3505
 60.3932
 60.5771
 60.0559
 59.3877
 59.4054
 58.673
 60.3125
 59.8057
 59.1491
 61.6031
 60.7342
 59.9175
 59.3303
 59.1932
 60.5197
 59.7017
 59.4318
 59.0259
 58.9069
 58.501
 58.1394
 58.7129
 58.89
 58.3263
 58.8938
 61.9968
 61.2998
 60.338
 59.8319
 59.2111
 59.3413
 58.5838
 61.604
 60.6799
 60.5555
 59.8314
 62.719
 59.8609
 59.5367
 59.2606
 60.5555
 59.8314
 59.2931
 58.5838
 58.5838
 59.2931
 58.8938
 61.604
 60.6799
 60.338
 59.8319
 59.3413
 59.2111
 58.5838
 61.9968
 61.2998
 60.7265
 59.8609
 59.5367
 59.2606
 59.1932
 62.2252
 59.6547
 59.4783
 59.4318
 63.0125
 59.3877
 58.7183
 59.4054
 58.673
 60.3125
 59.8057
 60.5771
 60.0559
 62.4328
 60.6799
 60.338
 60.4553
 61.9968
 61.2998
 58.6537
 58.8938
 62.6921
 60.0344
 59.353
 59.3413
 59.3515
 62.2268
 61.9979
 61.4831
 61.053
 60.968
 60.375
 59.84
 60.5197
 59.8234
 59.84
 59.4079
 58.692
 58.9642
 58.1422
 57.9843
 61.4831
 61.053
 60.375
 59.8234
 59.8604
 61.5153
 60.968
 62.3683
 59.3703
 59.0259
 58.9069
 58.8276
 58.501
 58.9642
 58.5455
 58.1422
 57.9843
 58.1967
 58.1955
 57.5289
 58.9628
 62.7779
 59.8142
 59.5379
 59.3008
 61.5511
 60.8461
 60.9145
 60.6786
 59.5534
 59.0503
 60.9828
 60.3051
 60.3932
 59.9175
 61.3505
 60.7342
 51.2253
 62.3385
 61.5107
 62.5913
 60.8153
 61.8722
 62.2801
 62.6416
 61.5107
 60.6151
 61.107
 60.6421
 62.2801
 61.8795
 51.8129
 61.8069
 61.8174
 62.5126
 61.5523
 62.7742
 48.9313
 62.4328
 61.6031
 51.9747
 62.3683
 61.5523
 62.6921
 62.2268
 62.4526
 61.7343
 62.7779
 62.2252
 61.9012
 60.8153
 61.8722
 62.5913
 61.8174
 61.8069
 61.8795
 53.9824
 60.6151
 60.6421
 61.107
 62.2801
 62.6416
 62.2801
 58.8034
 59.1932
 58.8879
 59.3008
 59.5379
 59.8142
 62.7779
 57.9903
 58.5694
 58.9628
 61.3505
 60.7342
 59.9175
 60.3932
 59.8057
 60.3125
 60.0559
 60.5771
 59.0503
 59.5534
 60.3051
 60.9828
 60.6786
 60.9145
 61.5511
 60.8461
 62.5126
 61.9968
 61.2998
 62.2268
 62.6921
 62.2268
 61.4831
 61.9979
 61.053
 49.5381
 62.3683
 61.6031
 62.4328
 61.7343
 62.4526
 61.9012
 62.2252
 62.7779
 62.2252
 58.7337
 62.4328
 60.7342
 61.6031
 63.0125
 58.7183
 59.3877
 58.2567
 58.673
 59.4054
 59.4783
 59.6547
 59.4318
 59.84
 59.4079
 58.9642
 58.692
 57.9843
 58.1422
 62.3683
 61.5153
 60.968
 60.5197
 59.4318
 59.7017
 58.9069
 59.0259
 58.1394
 58.501
 61.053
 59.8234
 60.375
 59.8604
 61.4831
 60.6799
 60.4553
 60.338
 60.5197
 59.8234
 60.375
 60.968
 59.84
 62.6921
 59.353
 60.0344
 59.3515
 59.3413
 58.8938
 58.6537
 57.6825
 58.1955
 57.3521
 57.5289
 58.5455
 58.9642
 58.1967
 57.9843
 58.1422
 58.9069
 59.0259
 59.3703
 58.501
 58.8276
 61.4296
 62.0051
 60.3932
 61.3505
 58.8034
 59.1932
 59.3303
 59.9175
 58.8879
 58.7714
 59.1491
 59.8057
 60.3125
 59.3877
 60.0559
 60.5771
 58.2567
 58.673
 59.4054
 58.89
 58.7129
 58.2225
 58.3263
 58.0664
 57.6825
 60.9145
 60.8461
 58.6862
 59.086
 58.4668
 59.4268
 59.0503
 59.5534
 60.0417
 60.3051
 60.9828
 61.5511
 61.8174
 57.9903
 58.5694
 58.9628
 60.2213
 60.6786
 57.9286
 58.1394
 58.2962
 58.2167
 59.0578
 59.1539
 59.7017
 60.6435
 57.925
 57.5945
 58.0015
 58.6747
 58.0845
 59.6447
 58.7802
 58.8466
 57.908
 58.1642
 58.8095
 58.1416
 61.6424
 61.773
 59.5469
 60.068
 59.406
 60.4277
 61.059
 60.8153
 61.8722
 57.908
 58.8466
 58.1642
 58.7802
 60.8153
 61.8722
 59.5469
 59.406
 60.068
 60.4277
 61.059
 61.6424
 61.773