# vtk DataFile Version 2.0
Ray Path Visualization
ASCII
DATASET POLYDATA

POINTS 602 float
 0 0 5
 0 40 3
 0 0 5
 0 41 3
 0 0 5
 0 42 3
 0 0 5
 0 43 3
 0 0 5
 0 44 3
 0 0 5
 0 45 3
 0 0 5
 0 46 3
 0 0 5
 0 47 3
 0 0 5
 0 48 3
 0 0 5
 0 49 3
 0 0 5
 0 50 3
 0 0 5
 0 51 3
 0 0 5
 0 52 3
 0 0 5
 0 53 3
 0 0 5
 0 54 3
 0 0 5
 0 55 3
 0 0 5
 0 56 3
 0 0 5
 0 57 3
 0 0 5
 0 58 3
 0 0 5
 0 59 3
 0 0 5
 0 60 3
 0 0 5
 0 61 3
 0 0 5
 0 62 3
 0 0 5
 0 63 3
 0 0 5
 0 64 3
 0 0 5
 0 65 3
 0 0 5
 0 66 3
 0 0 5
 0 67 3
 0 0 5
 0 68 3
 0 0 5
 0 69 3
 0 0 5
 0 70 3
 0 0 5
 0 71 3
 0 0 5
 0 72 3
 0 0 5
 0 73 3
 0 0 5
 0 74 3
 0 0 5
 0 75 3
 0 0 5
 0 76 3
 0 0 5
 0 77 3
 0 0 5
 0 78 3
 0 0 5
 0 79 3
 0 0 5
 0 80 3
 0 0 5
 0 81 3
 0 0 5
 0 82 3
 0 0 5
 0 83 3
 0 0 5
 0 84 3
 0 0 5
 0 85 3
 0 0 5
 0 86 3
 0 0 5
 0 87 3
 0 0 5
 0 88 3
 0 0 5
 0 89 3
 0 0 5
 0 90 3
 0 0 5
 0 91 3
 0 0 5
 0 92 3
 0 0 5
 0 93 3
 0 0 5
 0 94 3
 0 0 5
 0 95 3
 0 0 5
 0 96 3
 0 0 5
 0 97 3
 0 0 5
 0 98 3
 0 0 5
 0 99 3
 0 0 5
 0 100 3
 0 0 5
 0 101 3
 0 0 5
 0 102 3
 0 0 5
 0 103 3
 0 0 5
 0 104 3
 0 0 5
 0 105 3
 0 0 5
 0 106 3
 0 0 5
 0 107 3
 0 0 5
 0 108 3
 0 0 5
 0 109 3
 0 0 5
 0 110 3
 0 0 5
 0 111 3
 0 0 5
 0 112 3
 0 0 5
 0 113 3
 0 0 5
 0 114 3
 0 0 5
 0 115 3
 0 0 5
 0 116 3
 0 0 5
 0 117 3
 0 0 5
 0 118 3
 0 0 5
 0 119 3
 0 0 5
 0 120 3
 0 0 5
 0 121 3
 0 0 5
 0 122 3
 0 0 5
 0 123 3
 0 0 5
 0 124 3
 0 0 5
 0 125 3
 0 0 5
 0 126 3
 0 0 5
 0 127 3
 0 0 5
 0 128 3
 0 0 5
 0 129 3
 0 0 5
 0 130 3
 0 0 5
 0 131 3
 0 0 5
 0 132 3
 0 0 5
 0 133 3
 0 0 5
 0 134 3
 0 0 5
 0 135 3
 0 0 5
 0 136 3
 0 0 5
 0 137 3
 0 0 5
 0 138 3
 0 0 5
 0 139 3
 0 0 5
 0 140 3
 0 0 5
 0 141 3
 0 0 5
 0 142 3
 0 0 5
 0 143 3
 0 0 5
 0 144 3
 0 0 5
 0 145 3
 0 0 5
 0 146 3
 0 0 5
 0 147 3
 0 0 5
 0 148 3
 0 0 5
 0 149 3
 0 0 5
 0 150 3
 0 0 5
 0 151 3
 0 0 5
 0 152 3
 0 0 5
 0 153 3
 0 0 5
 0 154 3
 0 0 5
 0 155 3
 0 0 5
 0 156 3
 0 0 5
 0 157 3
 0 0 5
 0 158 3
 0 0 5
 0 159 3
 0 0 5
 0 160 3
 0 0 5
 0 161 3
 0 0 5
 0 162 3
 0 0 5
 0 163 3
 0 0 5
 0 164 3
 0 0 5
 0 165 3
 0 0 5
 0 166 3
 0 0 5
 0 167 3
 0 0 5
 0 168 3
 0 0 5
 0 169 3
 0 0 5
 0 170 3
 0 0 5
 0 171 3
 0 0 5
 0 172 3
 0 0 5
 0 173 3
 0 0 5
 0 174 3
 0 0 5
 0 175 3
 0 0 5
 0 176 3
 0 0 5
 0 177 3
 0 0 5
 0 178 3
 0 0 5
 0 179 3
 0 0 5
 0 180 3
 0 0 5
 0 181 3
 0 0 5
 0 182 3
 0 0 5
 0 183 3
 0 0 5
 0 184 3
 0 0 5
 0 185 3
 0 0 5
 0 186 3
 0 0 5
 0 187 3
 0 0 5
 0 188 3
 0 0 5
 0 189 3
 0 0 5
 0 190 3
 0 0 5
 0 191 3
 0 0 5
 0 192 3
 0 0 5
 0 193 3
 0 0 5
 0 194 3
 0 0 5
 0 195 3
 0 0 5
 0 196 3
 0 0 5
 0 197 3
 0 0 5
 0 198 3
 0 0 5
 0 199 3
 0 0 5
 0 25 0
 0 40 3
 0 0 5
 0 25.625 0
 0 41 3
 0 0 5
 0 26.25 0
 0 42 3
 0 0 5
 0 26.875 0
 0 43 3
 0 0 5
 0 27.5 0
 0 44 3
 0 0 5
 0 28.125 0
 0 45 3
 0 0 5
 0 28.75 0
 0 46 3
 0 0 5
 0 29.375 0
 0 47 3
 0 0 5
 0 30 0
 0 48 3
 0 0 5
 0 30.625 0
 0 49 3
 0 0 5
 0 31.25 0
 0 50 3
 0 0 5
 0 31.875 0
 0 51 3
 0 0 5
 0 32.5 0
 0 52 3
 0 0 5
 0 33.125 0
 0 53 3
 0 0 5
 0 33.75 0
 0 54 3
 0 0 5
 0 34.375 0
 0 55 3
 0 0 5
 0 35 0
 0 56 3
 0 0 5
 0 35.625 0
 0 57 3
 0 0 5
 0 36.25 0
 0 58 3
 0 0 5
 0 36.875 0
 0 59 3
 0 0 5
 0 37.5 0
 0 60 3
 0 0 5
 0 38.125 0
 0 61 3
 0 0 5
 0 38.75 0
 0 62 3
 0 0 5
 0 39.375 0
 0 63 3
 0 0 5
 0 40 0
 0 64 3
 0 0 5
 0 40.625 0
 0 65 3
 0 0 5
 0 41.25 0
 0 66 3
 0 0 5
 0 41.875 0
 0 67 3
 0 0 5
 0 42.5 0
 0 68 3
 0 0 5
 0 43.125 0
 0 69 3
 0 0 5
 0 43.75 0
 0 70 3
 0 0 5
 0 44.375 0
 0 71 3
 0 0 5
 0 45 0
 0 72 3
 0 0 5
 0 45.625 0
 0 73 3
 0 0 5
 0 46.25 0
 0 74 3
 0 0 5
 0 46.875 0
 0 75 3
 0 0 5
 0 47.5 0
 0 76 3
 0 0 5
 0 48.125 0
 0 77 3
 0 0 5
 0 48.75 0
 0 78 3
 0 0 5
 0 49.375 0
 0 79 3
 0 0 5
 0 50 0
 0 80 3
 0 0 5
 0 50.625 0
 0 81 3
 0 0 5
 0 51.25 0
 0 82 3
 0 0 5
 0 51.875 0
 0 83 3
 0 0 5
 0 52.5 0
 0 84 3
 0 0 5
 0 53.125 0
 0 85 3
 0 0 5
 0 53.75 0
 0 86 3
 0 0 5
 0 54.375 0
 0 87 3
 0 0 5
 0 55 0
 0 88 3
 0 0 5
 0 55.625 0
 0 89 3
 0 0 5
 0 56.25 0
 0 90 3
 0 0 5
 0 56.875 0
 0 91 3
 0 0 5
 0 57.5 0
 0 92 3
 0 0 5
 0 58.125 0
 0 93 3
 0 0 5
 0 58.75 0
 0 94 3
 0 0 5
 0 59.375 0
 0 95 3
 0 0 5
 0 60 0
 0 96 3
 0 0 5
 0 60.625 0
 0 97 3
 0 0 5
 0 61.25 0
 0 98 3
 0 0 5
 0 61.875 0
 0 99 3
 0 0 5
 0 62.5 0
 0 100 3
 0 0 5
 0 63.125 0
 0 101 3
 0 0 5
 0 63.75 0
 0 102 3
 0 0 5
 0 64.375 0
 0 103 3
 0 0 5
 0 65 0
 0 104 3
 0 0 5
 0 65.625 0
 0 105 3
 0 0 5
 0 66.25 0
 0 106 3
 0 0 5
 0 66.875 0
 0 107 3
 0 0 5
 0 67.5 0
 0 108 3
 0 0 5
 0 68.125 0
 0 109 3
 0 0 5
 0 68.75 0
 0 110 3
 0 0 5
 0 69.375 0
 0 111 3
 0 0 5
 0 70 0
 0 112 3
 0 0 5
 0 70.625 0
 0 113 3
 0 0 5
 0 71.25 0
 0 114 3
 0 0 5
 0 71.875 0
 0 115 3
 0 0 5
 0 72.5 0
 0 116 3
 0 0 5
 0 73.125 0
 0 117 3
 0 0 5
 0 73.75 0
 0 118 3
 0 0 5
 0 74.375 0
 0 119 3
 0 0 5
 0 75 0
 0 120 3
 0 0 5
 0 75.625 0
 0 121 3
 0 0 5
 0 76.25 0
 0 122 3
 0 0 5
 0 76.875 0
 0 123 3
 0 0 5
 0 77.5 0
 0 124 3
 0 0 5
 0 78.125 0
 0 125 3
 0 0 5
 0 78.75 0
 0 126 3
 0 0 5
 0 79.375 0
 0 127 3
 0 0 5
 0 80 0
 0 128 3
 0 0 5
 0 80.625 0
 0 129 3
 0 0 5
 0 81.25 0
 0 130 3
 0 0 5
 0 81.875 0
 0 131 3
 0 0 5
 0 82.5 0
 0 132 3
 0 0 5
 0 83.125 0
 0 133 3
LINES 254 856
 2 0 1 
 2 2 3 
 2 4 5 
 2 6 7 
 2 8 9 
 2 10 11 
 2 12 13 
 2 14 15 
 2 16 17 
 2 18 19 
 2 20 21 
 2 22 23 
 2 24 25 
 2 26 27 
 2 28 29 
 2 30 31 
 2 32 33 
 2 34 35 
 2 36 37 
 2 38 39 
 2 40 41 
 2 42 43 
 2 44 45 
 2 46 47 
 2 48 49 
 2 50 51 
 2 52 53 
 2 54 55 
 2 56 57 
 2 58 59 
 2 60 61 
 2 62 63 
 2 64 65 
 2 66 67 
 2 68 69 
 2 70 71 
 2 72 73 
 2 74 75 
 2 76 77 
 2 78 79 
 2 80 81 
 2 82 83 
 2 84 85 
 2 86 87 
 2 88 89 
 2 90 91 
 2 92 93 
 2 94 95 
 2 96 97 
 2 98 99 
 2 100 101 
 2 102 103 
 2 104 105 
 2 106 107 
 2 108 109 
 2 110 111 
 2 112 113 
 2 114 115 
 2 116 117 
 2 118 119 
 2 120 121 
 2 122 123 
 2 124 125 
 2 126 127 
 2 128 129 
 2 130 131 
 2 132 133 
 2 134 135 
 2 136 137 
 2 138 139 
 2 140 141 
 2 142 143 
 2 144 145 
 2 146 147 
 2 148 149 
 2 150 151 
 2 152 153 
 2 154 155 
 2 156 157 
 2 158 159 
 2 160 161 
 2 162 163 
 2 164 165 
 2 166 167 
 2 168 169 
 2 170 171 
 2 172 173 
 2 174 175 
 2 176 177 
 2 178 179 
 2 180 181 
 2 182 183 
 2 184 185 
 2 186 187 
 2 188 189 
 2 190 191 
 2 192 193 
 2 194 195 
 2 196 197 
 2 198 199 
 2 200 201 
 2 202 203 
 2 204 205 
 2 206 207 
 2 208 209 
 2 210 211 
 2 212 213 
 2 214 215 
 2 216 217 
 2 218 219 
 2 220 221 
 2 222 223 
 2 224 225 
 2 226 227 
 2 228 229 
 2 230 231 
 2 232 233 
 2 234 235 
 2 236 237 
 2 238 239 
 2 240 241 
 2 242 243 
 2 244 245 
 2 246 247 
 2 248 249 
 2 250 251 
 2 252 253 
 2 254 255 
 2 256 257 
 2 258 259 
 2 260 261 
 2 262 263 
 2 264 265 
 2 266 267 
 2 268 269 
 2 270 271 
 2 272 273 
 2 274 275 
 2 276 277 
 2 278 279 
 2 280 281 
 2 282 283 
 2 284 285 
 2 286 287 
 2 288 289 
 2 290 291 
 2 292 293 
 2 294 295 
 2 296 297 
 2 298 299 
 2 300 301 
 2 302 303 
 2 304 305 
 2 306 307 
 2 308 309 
 2 310 311 
 2 312 313 
 2 314 315 
 2 316 317 
 2 318 319 
 3 320 321 322 
 3 323 324 325 
 3 326 327 328 
 3 329 330 331 
 3 332 333 334 
 3 335 336 337 
 3 338 339 340 
 3 341 342 343 
 3 344 345 346 
 3 347 348 349 
 3 350 351 352 
 3 353 354 355 
 3 356 357 358 
 3 359 360 361 
 3 362 363 364 
 3 365 366 367 
 3 368 369 370 
 3 371 372 373 
 3 374 375 376 
 3 377 378 379 
 3 380 381 382 
 3 383 384 385 
 3 386 387 388 
 3 389 390 391 
 3 392 393 394 
 3 395 396 397 
 3 398 399 400 
 3 401 402 403 
 3 404 405 406 
 3 407 408 409 
 3 410 411 412 
 3 413 414 415 
 3 416 417 418 
 3 419 420 421 
 3 422 423 424 
 3 425 426 427 
 3 428 429 430 
 3 431 432 433 
 3 434 435 436 
 3 437 438 439 
 3 440 441 442 
 3 443 444 445 
 3 446 447 448 
 3 449 450 451 
 3 452 453 454 
 3 455 456 457 
 3 458 459 460 
 3 461 462 463 
 3 464 465 466 
 3 467 468 469 
 3 470 471 472 
 3 473 474 475 
 3 476 477 478 
 3 479 480 481 
 3 482 483 484 
 3 485 486 487 
 3 488 489 490 
 3 491 492 493 
 3 494 495 496 
 3 497 498 499 
 3 500 501 502 
 3 503 504 505 
 3 506 507 508 
 3 509 510 511 
 3 512 513 514 
 3 515 516 517 
 3 518 519 520 
 3 521 522 523 
 3 524 525 526 
 3 527 528 529 
 3 530 531 532 
 3 533 534 535 
 3 536 537 538 
 3 539 540 541 
 3 542 543 544 
 3 545 546 547 
 3 548 549 550 
 3 551 552 553 
 3 554 555 556 
 3 557 558 559 
 3 560 561 562 
 3 563 564 565 
 3 566 567 568 
 3 569 570 571 
 3 572 573 574 
 3 575 576 577 
 3 578 579 580 
 3 581 582 583 
 3 584 585 586 
 3 587 588 589 
 3 590 591 592 
 3 593 594 595 
 3 596 597 598 
 3 599 600 601 
CELL_DATA 254
FIELD FieldData 5
LaunchID 1 254 int
 18
 18
 18
 18
 18
 18
 18
 18
 18
 18
 18
 18
 18
 18
 18
 18
 18
 18
 18
 18
 18
 18
 18
 18
 18
 18
 18
 18
 18
 18
 18
 18
 18
 18
 18
 18
 18
 18
 18
 18
 18
 18
 18
 18
 18
 18
 18
 18
 18
 18
 18
 18
 18
 18
 18
 18
 18
 18
 18
 18
 18
 18
 18
 18
 18
 18
 18
 18
 18
 18
 18
 18
 18
 18
 18
 18
 18
 18
 18
 18
 18
 18
 18
 18
 18
 18
 18
 18
 18
 18
 18
 18
 18
 18
 18
 18
 18
 18
 18
 18
 18
 18
 18
 18
 18
 18
 18
 18
 18
 18
 18
 18
 18
 18
 18
 18
 18
 18
 18
 18
 18
 18
 18
 18
 18
 18
 18
 18
 18
 18
 18
 18
 18
 18
 18
 18
 18
 18
 18
 18
 18
 18
 18
 18
 18
 18
 18
 18
 18
 18
 18
 18
 18
 18
 18
 18
 18
 18
 18
 18
 60
 60
 60
 60
 60
 60
 60
 60
 60
 60
 60
 60
 60
 60
 60
 60
 60
 60
 60
 60
 60
 60
 60
 60
 60
 60
 60
 60
 60
 60
 60
 60
 60
 60
 60
 60
 60
 60
 60
 60
 60
 60
 60
 60
 60
 60
 60
 60
 60
 60
 60
 60
 60
 60
 60
 60
 60
 60
 60
 60
 60
 60
 60
 60
 60
 60
 60
 60
 60
 60
 60
 60
 60
 60
 60
 60
 60
 60
 60
 60
 60
 60
 60
 60
 60
 60
 60
 60
 60
 60
 60
 60
 60
 60
ReceiverID 1 254 int
 0
 1
 2
 3
 4
 5
 6
 7
 8
 9
 10
 11
 12
 13
 14
 15
 16
 17
 18
 19
 20
 21
 22
 23
 24
 25
 26
 27
 28
 29
 30
 31
 32
 33
 34
 35
 36
 37
 38
 39
 40
 41
 42
 43
 44
 45
 46
 47
 48
 49
 50
 51
 52
 53
 54
 55
 56
 57
 58
 59
 60
 61
 62
 63
 64
 65
 66
 67
 68
 69
 70
 71
 72
 73
 74
 75
 76
 77
 78
 79
 80
 81
 82
 83
 84
 85
 86
 87
 88
 89
 90
 91
 92
 93
 94
 95
 96
 97
 98
 99
 100
 101
 102
 103
 104
 105
 106
 107
 108
 109
 110
 111
 112
 113
 114
 115
 116
 117
 118
 119
 120
 121
 122
 123
 124
 125
 126
 127
 128
 129
 130
 131
 132
 133
 134
 135
 136
 137
 138
 139
 140
 141
 142
 143
 144
 145
 146
 147
 148
 149
 150
 151
 152
 153
 154
 155
 156
 157
 158
 159
 0
 1
 2
 3
 4
 5
 6
 7
 8
 9
 10
 11
 12
 13
 14
 15
 16
 17
 18
 19
 20
 21
 22
 23
 24
 25
 26
 27
 28
 29
 30
 31
 32
 33
 34
 35
 36
 37
 38
 39
 40
 41
 42
 43
 44
 45
 46
 47
 48
 49
 50
 51
 52
 53
 54
 55
 56
 57
 58
 59
 60
 61
 62
 63
 64
 65
 66
 67
 68
 69
 70
 71
 72
 73
 74
 75
 76
 77
 78
 79
 80
 81
 82
 83
 84
 85
 86
 87
 88
 89
 90
 91
 92
 93
Eabs 1 254 double
 0.257166
 0.243501
 0.226224
 0.210062
 0.198706
 0.193617
 0.193809
 0.196874
 0.20034
 0.202445
 0.202288
 0.199667
 0.194853
 0.188397
 0.180979
 0.173297
 0.165981
 0.159529
 0.154266
 0.150327
 0.14767
 0.146115
 0.1454
 0.145236
 0.145352
 0.145514
 0.145547
 0.145326
 0.144776
 0.143864
 0.142584
 0.140959
 0.139024
 0.136827
 0.134421
 0.13186
 0.129201
 0.126494
 0.123787
 0.121122
 0.118535
 0.116056
 0.113709
 0.11151
 0.10947
 0.107594
 0.105883
 0.104334
 0.102938
 0.101686
 0.100566
 0.0995654
 0.0986695
 0.0978646
 0.0971368
 0.096473
 0.0958609
 0.0952893
 0.0947478
 0.0942275
 0.0937207
 0.0932205
 0.0927213
 0.0922186
 0.0917086
 0.0911884
 0.0906558
 0.0901094
 0.0895481
 0.0889716
 0.0883796
 0.0877725
 0.0871509
 0.0865154
 0.0858671
 0.0852069
 0.0845362
 0.0838561
 0.0831679
 0.082473
 0.0817726
 0.081068
 0.0803605
 0.0796514
 0.0789417
 0.0782327
 0.0775253
 0.0768206
 0.0761196
 0.075423
 0.0747317
 0.0740464
 0.0733678
 0.0726965
 0.0707815
 0.0702574
 0.069741
 0.0692322
 0.0687307
 0.0682365
 0.0677493
 0.067269
 0.0667954
 0.0663285
 0.0658681
 0.065414
 0.0649661
 0.0645243
 0.0640885
 0.0636586
 0.0632343
 0.0628157
 0.0624026
 0.0619949
 0.0615924
 0.0611952
 0.060803
 0.0604159
 0.0600336
 0.0596562
 0.0592834
 0.0589153
 0.0585518
 0.0581927
 0.0578379
 0.0574875
 0.0571413
 0.0567992
 0.0564612
 0.0561272
 0.0557972
 0.055471
 0.0551485
 0.0548299
 0.0545148
 0.0542034
 0.0538955
 0.0535911
 0.0532901
 0.0529925
 0.0526981
 0.052407
 0.0521192
 0.0518344
 0.0515528
 0.0512742
 0.0509986
 0.0507259
 0.0504562
 0.0501893
 0.0499252
 0.0496638
 0.0494052
 0.0491493
 0.048896
 0.0486453
 0.0483972
 0.0481515
 0.0479084
 0.0476677
 0.257166
 0.243501
 0.226224
 0.210062
 0.198706
 0.193617
 0.193809
 0.196874
 0.20034
 0.202445
 0.202288
 0.199667
 0.194853
 0.188397
 0.180979
 0.173297
 0.165981
 0.159529
 0.154266
 0.150327
 0.14767
 0.146115
 0.1454
 0.145236
 0.145352
 0.145514
 0.145547
 0.145326
 0.144776
 0.143864
 0.142584
 0.140959
 0.139024
 0.136827
 0.134421
 0.13186
 0.129201
 0.126494
 0.123787
 0.121122
 0.118535
 0.116056
 0.113709
 0.11151
 0.10947
 0.107594
 0.105883
 0.104334
 0.102938
 0.101686
 0.100566
 0.0995654
 0.0986695
 0.0978646
 0.0971368
 0.096473
 0.0958609
 0.0952893
 0.0947478
 0.0942275
 0.0937207
 0.0932205
 0.0927213
 0.0922186
 0.0917086
 0.0911884
 0.0906558
 0.0901094
 0.0895481
 0.0889716
 0.0883796
 0.0877725
 0.0871509
 0.0865154
 0.0858671
 0.0852069
 0.0845362
 0.0838561
 0.0831679
 0.082473
 0.0817726
 0.081068
 0.0803605
 0.0796514
 0.0789417
 0.0782327
 0.0775253
 0.0768206
 0.0761196
 0.075423
 0.0747317
 0.0740464
 0.0733678
 0.0726965
EdB 1 254 double
 108.204
 107.73
 107.091
 106.447
 105.964
 105.739
 105.747
 105.884
 106.035
 106.126
 106.119
 106.006
 105.794
 105.501
 105.153
 104.776
 104.401
 104.057
 103.765
 103.541
 103.386
 103.294
 103.251
 103.242
 103.248
 103.258
 103.26
 103.247
 103.214
 103.159
 103.081
 102.982
 102.862
 102.723
 102.569
 102.402
 102.225
 102.041
 101.853
 101.664
 101.477
 101.293
 101.116
 100.946
 100.786
 100.636
 100.497
 100.368
 100.252
 100.145
 100.049
 99.9622
 99.8837
 99.8125
 99.7477
 99.6881
 99.6328
 99.5809
 99.5314
 99.4836
 99.4367
 99.3902
 99.3436
 99.2964
 99.2482
 99.1988
 99.1479
 99.0954
 99.0411
 98.985
 98.927
 98.8672
 98.8054
 98.7419
 98.6765
 98.6095
 98.5409
 98.4707
 98.3991
 98.3262
 98.2522
 98.177
 98.1009
 98.0239
 97.9461
 97.8678
 97.7889
 97.7096
 97.6299
 97.5501
 97.4701
 97.3901
 97.3101
 97.2303
 96.9984
 96.9338
 96.8698
 96.8062
 96.743
 96.6803
 96.6181
 96.5563
 96.4949
 96.434
 96.3735
 96.3134
 96.2537
 96.1945
 96.1356
 96.0771
 96.0191
 95.9614
 95.904
 95.8471
 95.7905
 95.7343
 95.6785
 95.623
 95.5679
 95.5131
 95.4587
 95.4046
 95.3508
 95.2974
 95.2443
 95.1915
 95.139
 95.0868
 95.035
 94.9835
 94.9322
 94.8813
 94.8307
 94.7803
 94.7303
 94.6805
 94.6311
 94.5819
 94.5329
 94.4843
 94.4359
 94.3878
 94.3399
 94.2924
 94.245
 94.198
 94.1512
 94.1046
 94.0583
 94.0122
 93.9664
 93.9208
 93.8755
 93.8303
 93.7855
 93.7408
 93.6964
 93.6522
 93.6082
 93.5645
 108.204
 107.73
 107.091
 106.447
 105.964
 105.739
 105.747
 105.884
 106.035
 106.126
 106.119
 106.006
 105.794
 105.501
 105.153
 104.776
 104.401
 104.057
 103.765
 103.541
 103.386
 103.294
 103.251
 103.242
 103.248
 103.258
 103.26
 103.247
 103.214
 103.159
 103.081
 102.982
 102.862
 102.723
 102.569
 102.402
 102.225
 102.041
 101.853
 101.664
 101.477
 101.293
 101.116
 100.946
 100.786
 100.636
 100.497
 100.368
 100.252
 100.145
 100.049
 99.9622
 99.8837
 99.8125
 99.7477
 99.6881
 99.6328
 99.5809
 99.5314
 99.4836
 99.4367
 99.3902
 99.3436
 99.2964
 99.2482
 99.1988
 99.1479
 99.0954
 99.0411
 98.985
 98.927
 98.8672
 98.8054
 98.7419
 98.6765
 98.6095
 98.5409
 98.4707
 98.3991
 98.3262
 98.2522
 98.177
 98.1009
 98.0239
 97.9461
 97.8678
 97.7889
 97.7096
 97.6299
 97.5501
 97.4701
 97.3901
 97.3101
 97.2303
Phase 1 254 double
 4.99245
 5.60134
 0.221904
 1.10137
 1.92352
 2.69541
 3.43116
 4.13556
 4.79656
 5.37592
 5.76705
 5.74202
 5.63251
 5.89599
 6.31696
 0.493661
 0.953251
 1.39862
 1.82526
 2.23273
 2.62223
 2.99523
 3.35255
 3.694
 4.0181
 4.32201
 4.60126
 4.84934
 5.05736
 5.21446
 5.31187
 5.35352
 5.36679
 5.39151
 5.4522
 5.55072
 5.67802
 5.82398
 5.98064
 6.14243
 0.0224295
 0.184517
 0.343898
 0.499537
 0.650796
 0.797305
 0.938873
 1.07543
 1.20698
 1.33358
 1.45528
 1.57217
 1.6843
 1.79174
 1.89452
 1.99264
 2.08611
 2.1749
 2.25895
 2.33821
 2.41259
 2.48202
 2.54638
 2.60558
 2.65952
 2.70811
 2.75126
 2.78893
 2.8211
 2.8478
 2.86913
 2.88524
 2.89637
 2.90286
 2.9051
 2.9036
 2.89888
 2.89153
 2.88215
 2.87132
 2.85956
 2.84735
 2.83508
 2.82306
 2.81152
 2.8006
 2.79039
 2.7809
 2.77214
 2.76404
 2.75652
 2.7495
 2.74288
 2.73657
 1.95645
 1.89067
 1.8247
 1.75855
 1.69223
 1.62573
 1.55906
 1.49223
 1.42524
 1.35809
 1.29078
 1.22333
 1.15572
 1.08797
 1.02008
 0.952047
 0.883877
 0.815574
 0.747139
 0.678575
 0.609884
 0.54107
 0.472135
 0.40308
 0.333908
 0.264621
 0.195222
 0.125712
 0.0560939
 -0.0136308
 -0.08346
 -0.153392
 -0.223424
 -0.293556
 -0.363785
 -0.434109
 -0.504527
 -0.575037
 -0.645637
 -0.716327
 -0.787104
 -0.857966
 -0.928914
 -0.999944
 -1.07106
 -1.14225
 -1.21352
 -1.28487
 -1.35629
 -1.42779
 -1.49937
 -1.57101
 -1.64273
 -1.71452
 -1.78638
 -1.8583
 -1.9303
 -2.00236
 -2.07448
 -2.14667
 -2.21892
 -2.29123
 -2.3636
 -2.43604
 -2.50853
 -2.58108
 4.99245
 5.60134
 0.221904
 1.10137
 1.92352
 2.69541
 3.43116
 4.13556
 4.79656
 5.37592
 5.76705
 5.74202
 5.63251
 5.89599
 6.31696
 0.493661
 0.953251
 1.39862
 1.82526
 2.23273
 2.62223
 2.99523
 3.35255
 3.694
 4.0181
 4.32201
 4.60126
 4.84934
 5.05736
 5.21446
 5.31187
 5.35352
 5.36679
 5.39151
 5.4522
 5.55072
 5.67802
 5.82398
 5.98064
 6.14243
 0.0224295
 0.184517
 0.343898
 0.499537
 0.650796
 0.797305
 0.938873
 1.07543
 1.20698
 1.33358
 1.45528
 1.57217
 1.6843
 1.79174
 1.89452
 1.99264
 2.08611
 2.1749
 2.25895
 2.33821
 2.41259
 2.48202
 2.54638
 2.60558
 2.65952
 2.70811
 2.75126
 2.78893
 2.8211
 2.8478
 2.86913
 2.88524
 2.89637
 2.90286
 2.9051
 2.9036
 2.89888
 2.89153
 2.88215
 2.87132
 2.85956
 2.84735
 2.83508
 2.82306
 2.81152
 2.8006
 2.79039
 2.7809
 2.77214
 2.76404
 2.75652
 2.7495
 2.74288
 2.73657
