# vtk DataFile Version 2.0
Ray Path Visualization
ASCII
DATASET POLYDATA

POINTS 8 float
 0 0 5
 0 -2.72361 6.68328
 0 0 5
 0 -4.51246 2.21115
 0 0 5
 0 2.72361 6.68328
 0 0 5
 0 4.51246 2.21115
LINES 4 12
 2 0 1
 2 2 3
 2 4 5
 2 6 7
CELL_DATA 4
FIELD FieldData 2
LaunchID 1 4 int
 6
 7
 16
 17
ReceiverID 1 4 int
 2
 2
 4
 4
