# vtk DataFile Version 2.0
Ray Path Visualization
ASCII
DATASET POLYDATA

POINTS 2172 float
 0 0 4
 -4 -0.571429 0
 -7 -1 3
 0 0 4
 -4 0 0
 -7 0 3
 0 0 4
 -4 0.571429 0
 -7 1 3
 0 0 4
 -3.42857 -1.14286 0
 -6 -2 3
 0 0 4
 -3.42857 -0.571429 0
 -6 -1 3
 0 0 4
 -3.42857 0 0
 -6 0 3
 0 0 4
 -3.42857 0.571429 0
 -6 1 3
 0 0 4
 -3.42857 1.14286 0
 -6 2 3
 0 0 4
 -2.85714 -1.14286 0
 -5 -2 3
 0 0 4
 -2.85714 -0.571429 0
 -5 -1 3
 0 0 4
 -2.85714 0 0
 -5 0 3
 0 0 4
 -2.85714 0.571429 0
 -5 1 3
 0 0 4
 -2.85714 1.14286 0
 -5 2 3
 0 0 4
 -2.28571 -1.14286 0
 -4 -2 3
 0 0 4
 -2.28571 -0.571429 0
 -4 -1 3
 0 0 4
 -2.28571 0 0
 -4 0 3
 0 0 4
 -2.28571 0.571429 0
 -4 1 3
 0 0 4
 -2.28571 1.14286 0
 -4 2 3
 0 0 4
 -1.71429 -0.571429 0
 -3 -1 3
 0 0 4
 -1.71429 0 0
 -3 0 3
 0 0 4
 -1.71429 0.571429 0
 -3 1 3
 0 0 4
 -1.14286 0 0
 -2 0 3
 0 0 4
 -1 0 3
 0 0 4
 0 0 3
 0 0 4
 1 0 3
 0 0 4
 1.14286 0 0
 2 0 3
 0 0 4
 1.71429 -0.571429 0
 3 -1 3
 0 0 4
 1.71429 0 0
 3 0 3
 0 0 4
 1.71429 0.571429 0
 3 1 3
 0 0 4
 2.28571 -1.14286 0
 4 -2 3
 0 0 4
 2.28571 -0.571429 0
 4 -1 3
 0 0 4
 2.28571 0 0
 4 0 3
 0 0 4
 2.28571 0.571429 0
 4 1 3
 0 0 4
 2.28571 1.14286 0
 4 2 3
 0 0 4
 2.85714 -1.14286 0
 5 -2 3
 0 0 4
 2.85714 -0.571429 0
 5 -1 3
 0 0 4
 2.85714 0 0
 5 0 3
 0 0 4
 2.85714 0.571429 0
 5 1 3
 0 0 4
 2.85714 1.14286 0
 5 2 3
 0 0 4
 3.42857 -1.14286 0
 6 -2 3
 0 0 4
 3.42857 -0.571429 0
 6 -1 3
 0 0 4
 3.42857 0 0
 6 0 3
 0 0 4
 3.42857 0.571429 0
 6 1 3
 0 0 4
 3.42857 1.14286 0
 6 2 3
 0 0 4
 4 -0.571429 0
 7 -1 3
 0 0 4
 4 0 0
 7 0 3
 0 0 4
 4 0.571429 0
 7 1 3
 0 0 4
 -2.28571 5.71429 0
 -4 10 3
 0 0 4
 -1.71429 4.57143 0
 -3 8 3
 0 0 4
 -1.71429 5.14286 0
 -3 9 3
 0 0 4
 -1.71429 5.71429 0
 -3 10 3
 0 0 4
 -1.14286 3.42857 0
 -2 6 3
 0 0 4
 -1.14286 4 0
 -2 7 3
 0 0 4
 -1.14286 4.57143 0
 -2 8 3
 0 0 4
 -1.14286 5.14286 0
 -2 9 3
 0 0 4
 -1.14286 5.71429 0
 -2 10 3
 0 0 4
 -0.571429 3.42857 0
 -1 6 3
 0 0 4
 -0.571429 4 0
 -1 7 3
 0 0 4
 -0.571429 4.57143 0
 -1 8 3
 0 0 4
 -0.571429 5.14286 0
 -1 9 3
 0 0 4
 -0.571429 5.71429 0
 -1 10 3
 0 0 4
 0 1 3
 0 0 4
 0 2 3
 0 0 4
 0 3 3
 0 0 4
 0 3.42857 0
 0 6 3
 0 0 4
 0 4 0
 0 7 3
 0 0 4
 0 4.57143 0
 0 8 3
 0 0 4
 0 5.14286 0
 0 9 3
 0 0 4
 0 5.71429 0
 0 10 3
 0 0 4
 0.571429 3.42857 0
 1 6 3
 0 0 4
 0.571429 4 0
 1 7 3
 0 0 4
 0.571429 4.57143 0
 1 8 3
 0 0 4
 0.571429 5.14286 0
 1 9 3
 0 0 4
 0.571429 5.71429 0
 1 10 3
 0 0 4
 1.14286 3.42857 0
 2 6 3
 0 0 4
 1.14286 4 0
 2 7 3
 0 0 4
 1.14286 4.57143 0
 2 8 3
 0 0 4
 1.14286 5.14286 0
 2 9 3
 0 0 4
 1.14286 5.71429 0
 2 10 3
 0 0 4
 1.71429 4.57143 0
 3 8 3
 0 0 4
 1.71429 5.14286 0
 3 9 3
 0 0 4
 1.71429 5.71429 0
 3 10 3
 0 0 4
 2.28571 5.71429 0
 4 10 3
 0 0 4
 -2.28571 -5.71429 0
 -4 -10 3
 0 0 4
 -1.71429 -5.71429 0
 -3 -10 3
 0 0 4
 -1.71429 -5.14286 0
 -3 -9 3
 0 0 4
 -1.71429 -4.57143 0
 -3 -8 3
 0 0 4
 -1.14286 -5.71429 0
 -2 -10 3
 0 0 4
 -1.14286 -5.14286 0
 -2 -9 3
 0 0 4
 -1.14286 -4.57143 0
 -2 -8 3
 0 0 4
 -1.14286 -4 0
 -2 -7 3
 0 0 4
 -1.14286 -3.42857 0
 -2 -6 3
 0 0 4
 -0.571429 -5.71429 0
 -1 -10 3
 0 0 4
 -0.571429 -5.14286 0
 -1 -9 3
 0 0 4
 -0.571429 -4.57143 0
 -1 -8 3
 0 0 4
 -0.571429 -4 0
 -1 -7 3
 0 0 4
 -0.571429 -3.42857 0
 -1 -6 3
 0 0 4
 0 -5.71429 0
 0 -10 3
 0 0 4
 0 -5.14286 0
 0 -9 3
 0 0 4
 0 -4.57143 0
 0 -8 3
 0 0 4
 0 -4 0
 0 -7 3
 0 0 4
 0 -3.42857 0
 0 -6 3
 0 0 4
 0 -3 3
 0 0 4
 0 -2 3
 0 0 4
 0 -1 3
 0 0 4
 0.571429 -5.71429 0
 1 -10 3
 0 0 4
 0.571429 -5.14286 0
 1 -9 3
 0 0 4
 0.571429 -4.57143 0
 1 -8 3
 0 0 4
 0.571429 -4 0
 1 -7 3
 0 0 4
 0.571429 -3.42857 0
 1 -6 3
 0 0 4
 1.14286 -5.71429 0
 2 -10 3
 0 0 4
 1.14286 -5.14286 0
 2 -9 3
 0 0 4
 1.14286 -4.57143 0
 2 -8 3
 0 0 4
 1.14286 -4 0
 2 -7 3
 0 0 4
 1.14286 -3.42857 0
 2 -6 3
 0 0 4
 1.71429 -5.71429 0
 3 -10 3
 0 0 4
 1.71429 -5.14286 0
 3 -9 3
 0 0 4
 1.71429 -4.57143 0
 3 -8 3
 0 0 4
 2.28571 -5.71429 0
 4 -10 3
 0 0 4
 2 1 3
 0 0 4
 3 2 3
 0 0 4
 4 2 3
 0 0 4
 4 3 3
 0 0 4
 5 2 3
 0 0 4
 5 3 3
 0 0 4
 5 4 3
 0 0 4
 6 3 3
 0 0 4
 6 4 3
 0 0 4
 6 5 3
 0 0 4
 7 3 3
 0 0 4
 7 4 3
 0 0 4
 7 5 3
 0 0 4
 7 6 3
 0 0 4
 8 3 3
 0 0 4
 8 4 3
 0 0 4
 8 5 3
 0 0 4
 8 6 3
 0 0 4
 8 7 3
 0 0 4
 9 4 3
 0 0 4
 9 5 3
 0 0 4
 9 6 3
 0 0 4
 9 7 3
 0 0 4
 9 8 3
 0 0 4
 10 4 3
 0 0 4
 10 5 3
 0 0 4
 10 6 3
 0 0 4
 10 7 3
 0 0 4
 10 8 3
 0 0 4
 10 9 3
 0 0 4
 -10 4 3
 0 0 4
 -10 5 3
 0 0 4
 -10 6 3
 0 0 4
 -10 7 3
 0 0 4
 -10 8 3
 0 0 4
 -10 9 3
 0 0 4
 -9 4 3
 0 0 4
 -9 5 3
 0 0 4
 -9 6 3
 0 0 4
 -9 7 3
 0 0 4
 -9 8 3
 0 0 4
 -8 3 3
 0 0 4
 -8 4 3
 0 0 4
 -8 5 3
 0 0 4
 -8 6 3
 0 0 4
 -8 7 3
 0 0 4
 -7 3 3
 0 0 4
 -7 4 3
 0 0 4
 -7 5 3
 0 0 4
 -7 6 3
 0 0 4
 -6 3 3
 0 0 4
 -6 4 3
 0 0 4
 -6 5 3
 0 0 4
 -5 2 3
 0 0 4
 -5 3 3
 0 0 4
 -5 4 3
 0 0 4
 -4 2 3
 0 0 4
 -4 3 3
 0 0 4
 -3 2 3
 0 0 4
 -2 1 3
 0 0 4
 2 -1 3
 0 0 4
 3 -2 3
 0 0 4
 4 -3 3
 0 0 4
 4 -2 3
 0 0 4
 5 -4 3
 0 0 4
 5 -3 3
 0 0 4
 5 -2 3
 0 0 4
 6 -5 3
 0 0 4
 6 -4 3
 0 0 4
 6 -3 3
 0 0 4
 7 -6 3
 0 0 4
 7 -5 3
 0 0 4
 7 -4 3
 0 0 4
 7 -3 3
 0 0 4
 8 -7 3
 0 0 4
 8 -6 3
 0 0 4
 8 -5 3
 0 0 4
 8 -4 3
 0 0 4
 8 -3 3
 0 0 4
 9 -8 3
 0 0 4
 9 -7 3
 0 0 4
 9 -6 3
 0 0 4
 9 -5 3
 0 0 4
 9 -4 3
 0 0 4
 10 -9 3
 0 0 4
 10 -8 3
 0 0 4
 10 -7 3
 0 0 4
 10 -6 3
 0 0 4
 10 -5 3
 0 0 4
 10 -4 3
 0 0 4
 -10 -9 3
 0 0 4
 -10 -8 3
 0 0 4
 -10 -7 3
 0 0 4
 -10 -6 3
 0 0 4
 -10 -5 3
 0 0 4
 -10 -4 3
 0 0 4
 -9 -8 3
 0 0 4
 -9 -7 3
 0 0 4
 -9 -6 3
 0 0 4
 -9 -5 3
 0 0 4
 -9 -4 3
 0 0 4
 -8 -7 3
 0 0 4
 -8 -6 3
 0 0 4
 -8 -5 3
 0 0 4
 -8 -4 3
 0 0 4
 -8 -3 3
 0 0 4
 -7 -6 3
 0 0 4
 -7 -5 3
 0 0 4
 -7 -4 3
 0 0 4
 -7 -3 3
 0 0 4
 -6 -5 3
 0 0 4
 -6 -4 3
 0 0 4
 -6 -3 3
 0 0 4
 -5 -4 3
 0 0 4
 -5 -3 3
 0 0 4
 -5 -2 3
 0 0 4
 -4 -3 3
 0 0 4
 -4 -2 3
 0 0 4
 -3 -2 3
 0 0 4
 -2 -1 3
 0 0 4
 -5 7 3
 0 0 4
 -5 8 3
 0 0 4
 -4 5 3
 0 0 4
 -4 6 3
 0 0 4
 -4 7 3
 0 0 4
 -3 3 3
 0 0 4
 -3 4 3
 0 0 4
 -3 5 3
 0 0 4
 -3 6 3
 0 0 4
 -2 2 3
 0 0 4
 -2 3 3
 0 0 4
 -2 4 3
 0 0 4
 -2 5 3
 0 0 4
 -1 1 3
 0 0 4
 -1 2 3
 0 0 4
 -1 3 3
 0 0 4
 -2 9 3
 0 0 4
 -2 10 3
 0 0 4
 -1 5 3
 0 0 4
 -1 6 3
 0 0 4
 -1 7 3
 0 0 4
 -1 8 3
 0 0 4
 -1 9 3
 0 0 4
 -1 10 3
 0 0 4
 0 4 3
 0 0 4
 0 5 3
 0 0 4
 0 6 3
 0 0 4
 0 7 3
 0 0 4
 0 8 3
 0 0 4
 0 9 3
 0 0 4
 0 10 3
 0 0 4
 1 5 3
 0 0 4
 1 6 3
 0 0 4
 1 7 3
 0 0 4
 1 8 3
 0 0 4
 1 9 3
 0 0 4
 1 10 3
 0 0 4
 2 9 3
 0 0 4
 2 10 3
 0 0 4
 1 1 3
 0 0 4
 1 2 3
 0 0 4
 1 3 3
 0 0 4
 2 2 3
 0 0 4
 2 3 3
 0 0 4
 2 4 3
 0 0 4
 2 5 3
 0 0 4
 3 3 3
 0 0 4
 3 4 3
 0 0 4
 3 5 3
 0 0 4
 3 6 3
 0 0 4
 4 5 3
 0 0 4
 4 6 3
 0 0 4
 4 7 3
 0 0 4
 5 7 3
 0 0 4
 5 8 3
 0 0 4
 2 0 3
 0 0 4
 3 0 3
 0 0 4
 4 0 3
 0 0 4
 5 -1 3
 0 0 4
 5 0 3
 0 0 4
 5 1 3
 0 0 4
 6 -1 3
 0 0 4
 6 0 3
 0 0 4
 6 1 3
 0 0 4
 7 -1 3
 0 0 4
 7 0 3
 0 0 4
 7 1 3
 0 0 4
 8 -1 3
 0 0 4
 8 0 3
 0 0 4
 8 1 3
 0 0 4
 9 -2 3
 0 0 4
 9 -1 3
 0 0 4
 9 0 3
 0 0 4
 9 1 3
 0 0 4
 9 2 3
 0 0 4
 10 -2 3
 0 0 4
 10 -1 3
 0 0 4
 10 0 3
 0 0 4
 10 1 3
 0 0 4
 10 2 3
 0 0 4
 3 1 3
 0 0 4
 2.85714 1.71429 0
 5 3 3
 0 0 4
 2.85714 2.28571 0
 5 4 3
 0 0 4
 3.42857 1.71429 0
 6 3 3
 0 0 4
 3.42857 2.28571 0
 6 4 3
 0 0 4
 3.42857 2.85714 0
 6 5 3
 0 0 4
 4 1.14286 0
 7 2 3
 0 0 4
 4 1.71429 0
 7 3 3
 0 0 4
 4 2.28571 0
 7 4 3
 0 0 4
 4 2.85714 0
 7 5 3
 0 0 4
 4 3.42857 0
 7 6 3
 0 0 4
 4.57143 0 0
 8 0 3
 0 0 4
 4.57143 0.571429 0
 8 1 3
 0 0 4
 4.57143 1.14286 0
 8 2 3
 0 0 4
 4.57143 1.71429 0
 8 3 3
 0 0 4
 4.57143 2.28571 0
 8 4 3
 0 0 4
 4.57143 2.85714 0
 8 5 3
 0 0 4
 4.57143 3.42857 0
 8 6 3
 0 0 4
 4.57143 4 0
 8 7 3
 0 0 4
 5.14286 0 0
 9 0 3
 0 0 4
 5.14286 0.571429 0
 9 1 3
 0 0 4
 5.14286 1.14286 0
 9 2 3
 0 0 4
 5.14286 1.71429 0
 9 3 3
 0 0 4
 5.14286 2.28571 0
 9 4 3
 0 0 4
 5.14286 2.85714 0
 9 5 3
 0 0 4
 5.14286 3.42857 0
 9 6 3
 0 0 4
 5.14286 4 0
 9 7 3
 0 0 4
 5.14286 4.57143 0
 9 8 3
 0 0 4
 5.71429 0 0
 10 0 3
 0 0 4
 5.71429 0.571429 0
 10 1 3
 0 0 4
 5.71429 1.14286 0
 10 2 3
 0 0 4
 5.71429 1.71429 0
 10 3 3
 0 0 4
 5.71429 2.28571 0
 10 4 3
 0 0 4
 5.71429 2.85714 0
 10 5 3
 0 0 4
 5.71429 3.42857 0
 10 6 3
 0 0 4
 5.71429 4 0
 10 7 3
 0 0 4
 5.71429 4.57143 0
 10 8 3
 0 0 4
 1 -1 3
 0 0 4
 3 -1 3
 0 0 4
 2.85714 -2.28571 0
 5 -4 3
 0 0 4
 2.85714 -1.71429 0
 5 -3 3
 0 0 4
 3.42857 -2.85714 0
 6 -5 3
 0 0 4
 3.42857 -2.28571 0
 6 -4 3
 0 0 4
 3.42857 -1.71429 0
 6 -3 3
 0 0 4
 4 -3.42857 0
 7 -6 3
 0 0 4
 4 -2.85714 0
 7 -5 3
 0 0 4
 4 -2.28571 0
 7 -4 3
 0 0 4
 4 -1.71429 0
 7 -3 3
 0 0 4
 4 -1.14286 0
 7 -2 3
 0 0 4
 4.57143 -4 0
 8 -7 3
 0 0 4
 4.57143 -3.42857 0
 8 -6 3
 0 0 4
 4.57143 -2.85714 0
 8 -5 3
 0 0 4
 4.57143 -2.28571 0
 8 -4 3
 0 0 4
 4.57143 -1.71429 0
 8 -3 3
 0 0 4
 4.57143 -1.14286 0
 8 -2 3
 0 0 4
 4.57143 -0.571429 0
 8 -1 3
 0 0 4
 5.14286 -4.57143 0
 9 -8 3
 0 0 4
 5.14286 -4 0
 9 -7 3
 0 0 4
 5.14286 -3.42857 0
 9 -6 3
 0 0 4
 5.14286 -2.85714 0
 9 -5 3
 0 0 4
 5.14286 -2.28571 0
 9 -4 3
 0 0 4
 5.14286 -1.71429 0
 9 -3 3
 0 0 4
 5.14286 -1.14286 0
 9 -2 3
 0 0 4
 5.14286 -0.571429 0
 9 -1 3
 0 0 4
 5.71429 -4.57143 0
 10 -8 3
 0 0 4
 5.71429 -4 0
 10 -7 3
 0 0 4
 5.71429 -3.42857 0
 10 -6 3
 0 0 4
 5.71429 -2.85714 0
 10 -5 3
 0 0 4
 5.71429 -2.28571 0
 10 -4 3
 0 0 4
 5.71429 -1.71429 0
 10 -3 3
 0 0 4
 5.71429 -1.14286 0
 10 -2 3
 0 0 4
 5.71429 -0.571429 0
 10 -1 3
 0 0 4
 0.571429 1.71429 0
 1 3 3
 0 0 4
 0.571429 2.28571 0
 1 4 3
 0 0 4
 0.571429 2.85714 0
 1 5 3
 0 0 4
 1.14286 1.14286 0
 2 2 3
 0 0 4
 1.14286 1.71429 0
 2 3 3
 0 0 4
 1.14286 2.28571 0
 2 4 3
 0 0 4
 1.14286 2.85714 0
 2 5 3
 0 0 4
 1.71429 1.71429 0
 3 3 3
 0 0 4
 1.71429 2.28571 0
 3 4 3
 0 0 4
 1.71429 2.85714 0
 3 5 3
 0 0 4
 1.71429 3.42857 0
 3 6 3
 0 0 4
 1.71429 4 0
 3 7 3
 0 0 4
 2.28571 2.28571 0
 4 4 3
 0 0 4
 2.28571 2.85714 0
 4 5 3
 0 0 4
 2.28571 3.42857 0
 4 6 3
 0 0 4
 2.28571 4 0
 4 7 3
 0 0 4
 2.85714 2.85714 0
 5 5 3
 0 0 4
 2.85714 3.42857 0
 5 6 3
 0 0 4
 2.85714 4 0
 5 7 3
 0 0 4
 -2.85714 2.28571 0
 -5 4 3
 0 0 4
 -2.85714 2.85714 0
 -5 5 3
 0 0 4
 -2.85714 3.42857 0
 -5 6 3
 0 0 4
 -2.85714 4 0
 -5 7 3
 0 0 4
 -2.28571 1.71429 0
 -4 3 3
 0 0 4
 -2.28571 2.28571 0
 -4 4 3
 0 0 4
[...]
CELL_DATA 871
FIELD FieldData 5
LaunchID 1 871 int
 2
 2
 2
 2
 2
 2
 2
 2
 2
 2
 2
 2
 2
 2
 2
 2
 2
 2
 2
 2
 2
 2
 2
 2
 3
 3
 3
 3
 3
 3
 3
 3
 3
 3
 3
 3
 3
 3
 3
 3
 3
 3
 3
 3
 3
 3
 3
 5
 5
 5
 5
 5
 5
 5
 5
 5
 5
 5
 5
 5
 5
 5
 5
 5
 5
 5
 5
 5
 5
 5
 5
 5
 5
 5
 5
 5
 5
 5
 5
 5
 5
 5
 5
 7
 7
 7
 7
 7
 7
 7
 7
 7
 7
 7
 7
 7
 7
 7
 7
 7
 7
 7
 7
 7
 7
 7
 7
 7
 7
 7
 7
 7
 7
 7
 7
 7
 7
 7
 7
 8
 8
 8
 8
 8
 8
 8
 8
 8
 8
 8
 8
 8
 8
 8
 8
 8
 8
 8
 8
 8
 8
 8
 8
 8
 8
 8
 8
 8
 8
 9
 9
 9
 9
 9
 9
 9
 9
 9
 9
 9
 9
 9
 9
 9
 9
 9
 9
 9
 9
 9
 9
 9
 9
 9
 9
 9
 9
 9
 9
 10
 10
 10
 10
 10
 10
 10
 10
 10
 10
 10
 10
 10
 10
 10
 10
 10
 10
 10
 10
 10
 10
 10
 10
 10
 10
 10
 10
 10
 10
 11
 11
 11
 11
 11
 11
 11
 11
 11
 11
 11
 11
 11
 11
 11
 11
 11
 11
 11
 11
 11
 11
 11
 11
 11
 11
 11
 11
 11
 11
 17
 17
 17
 17
 17
 17
 17
 17
 17
 17
 17
 17
 17
 17
 17
 17
 18
 18
 18
 18
 18
 18
 18
 18
 18
 18
 18
 18
 18
 18
 18
 18
 18
 18
 18
 18
 18
 18
 18
 19
 19
 19
 19
 19
 19
 19
 19
 19
 19
 19
 19
 19
 19
 19
 19
 22
 22
 22
 22
 22
 22
 22
 22
 22
 22
 22
 22
 22
 22
 22
 22
 22
 22
 22
 22
 22
 22
 22
 22
 22
 24
 24
 24
 24
 24
 24
 24
 24
 24
 24
 24
 24
 24
 24
 24
 24
 24
 24
 24
 24
 24
 24
 24
 24
 24
 24
 24
 24
 24
 24
 24
 24
 24
 24
 24
 24
 24
 25
 25
 25
 25
 25
 25
 25
 25
 25
 25
 25
 25
 25
 25
 25
 25
 25
 25
 25
 25
 25
 25
 25
 25
 25
 25
 25
 25
 25
 25
 25
 25
 25
 25
 25
 26
 26
 26
 26
 26
 26
 26
 26
 26
 26
 26
 26
 26
 26
 26
 26
 26
 26
 26
 27
 27
 27
 27
 27
 27
 27
 27
 27
 27
 27
 27
 27
 27
 27
 27
 27
 27
 27
 27
 27
 27
 28
 28
 28
 28
 28
 29
 29
 29
 29
 29
 29
 29
 29
 29
 29
 29
 29
 29
 29
 29
 29
 29
 29
 29
 29
 30
 30
 30
 30
 30
 30
 30
 30
 30
 30
 30
 30
 30
 30
 30
 30
 30
 30
 30
 30
 30
 31
 31
 31
 31
 31
 31
 31
 31
 31
 31
 31
 31
 31
 31
 31
 32
 32
 32
 32
 32
 32
 32
 32
 32
 32
 32
 32
 32
 32
 32
 32
 32
 32
 32
 32
 32
 32
 32
 34
 34
 34
 34
 34
 34
 34
 34
 34
 34
 34
 34
 34
 34
 34
 39
 39
 39
 39
 39
 39
 39
 39
 39
 39
 39
 39
 39
 39
 39
 39
 39
 39
 39
 39
 39
 39
 39
 39
 39
 40
 40
 40
 40
 40
 40
 40
 40
 40
 40
 40
 40
 40
 40
 40
 40
 40
 40
 40
 40
 40
 40
 40
 40
 40
 40
 40
 40
 40
 40
 40
 40
 40
 40
 40
 40
 41
 41
 41
 41
 41
 41
 41
 41
 41
 41
 41
 41
 41
 41
 41
 41
 41
 41
 41
 41
 41
 41
 41
 41
 41
 41
 41
 41
 41
 41
 41
 41
 41
 53
 53
 53
 53
 58
 58
 58
 58
 58
 58
 58
 58
 58
 58
 58
 58
 58
 59
 59
 59
 59
 59
 59
 59
 59
 60
 60
 61
 61
 61
 61
 61
 62
 62
 62
 62
 62
 62
 62
 62
 62
 62
 62
 67
 67
 67
 67
 67
 67
 67
 67
 67
 67
 67
 68
 68
 68
 68
 68
 68
 68
 68
 68
 68
 68
 69
 69
 69
 69
 70
 70
 70
 70
 70
 70
 70
 70
 70
 70
 70
 71
 71
 71
 71
 77
 77
 77
 77
 77
 77
 81
 81
 81
 81
 81
 81
 91
 91
 92
 92
 92
 92
 92
 92
 92
 92
 92
 94
 97
 97
 98
 98
 99
 101
 102
 104
 104
 104
 105
 105
 105
 105
 105
 105
 105
 107
 107
 107
 107
 107
 108
 110
 110
 110
 110
 110
 110
 110
 111
 111
 111
 111
 111
 111
 111
 111
 111
 111
 113
 113
 113
 113
 113
 113
 113
 113
 113
 113
 113
 113
 113
 113
 113
 113
 113
 115
 116
 116
 116
 116
 116
 116
 116
 116
 116
 116
 116
 120
 120
 122
 122
 122
 122
 122
 122
 123
 123
 123
 123
 123
 123
 123
 123
 123
 123
 123
 124
 124
 124
 124
 125
 125
 125
 125
 125
 125
 125
 125
 125
 125
 125
 126
 126
 126
 126
 145
 145
 145
 145
 145
 145
 147
 147
 147
 147
 147
 147
 156
 156
 156
 156
 156
 156
 156
 156
 156
 156
 159
 159
 159
 159
 159
 159
 159
 159
 159
ReceiverID 1 871 int
 72
 73
 74
 92
 93
 94
 95
 96
 113
 114
 115
 116
 117
 134
 135
 136
 137
 138
 156
 157
 158
 178
 199
 220
 241
 262
 282
 283
 284
 302
 303
 304
 305
 306
 323
 324
 325
 326
 327
 344
 345
 346
 347
 348
 366
 367
 368
 146
 165
 166
 167
 184
 185
 186
 187
 188
 205
 206
 207
 208
 209
 221
 222
 223
 226
 227
 228
 229
 230
 247
 248
 249
 250
 251
 268
 269
 270
 271
 272
 291
 292
 293
 314
 126
 147
 148
 149
 168
 169
 170
 171
 172
 189
 190
 191
 192
 193
 210
 211
 212
 213
 214
 217
 218
 219
 231
 232
 233
 234
 235
 252
 253
 254
 255
 256
 273
 274
 275
 294
 263
 285
 306
 307
 327
 328
 329
 349
 350
 351
 370
 371
 372
 373
 391
 392
 393
 394
 395
 413
 414
 415
 416
 417
 434
 435
 436
 437
 438
 439
 14
 15
 16
 17
 18
 19
 35
 36
 37
 38
 39
 55
 56
 57
 58
 59
 76
 77
 78
 79
 97
 98
 99
 117
 118
 119
 138
 139
 159
 179
 261
 281
 301
 302
 321
 322
 323
 341
 342
 343
 361
 362
 363
 364
 381
 382
 383
 384
 385
 401
 402
 403
 404
 405
 421
 422
 423
 424
 425
 426
 1
 2
 3
 4
 5
 6
 23
 24
 25
 26
 27
 45
 46
 47
 48
 49
 67
 68
 69
 70
 89
 90
 91
 111
 112
 113
 133
 134
 155
 177
 122
 123
 141
 142
 143
 160
 161
 162
 163
 180
 181
 182
 183
 200
 201
 202
 187
 188
 204
 205
 206
 207
 208
 209
 224
 225
 226
 227
 228
 229
 230
 246
 247
 248
 249
 250
 251
 271
 272
 242
 243
 244
 264
 265
 266
 267
 286
 287
 288
 289
 309
 310
 311
 332
 333
 262
 283
 304
 324
 325
 326
 345
 346
 347
 366
 367
 368
 387
 388
 389
 407
 408
 409
 410
 411
 428
 429
 430
 431
 432
 284
 328
 329
 349
 350
 351
 369
 370
 371
 372
 373
 388
 389
 390
 391
 392
 393
 394
 395
 409
 410
 411
 412
 413
 414
 415
 416
 417
 430
 431
 432
 433
 434
 435
 436
 437
 438
 240
 282
 321
 322
 341
 342
 343
 361
 362
 363
 364
 365
 381
 382
 383
 384
 385
 386
 387
 401
 402
 403
 404
 405
 406
 407
 408
 422
 423
 424
 425
 426
 427
 428
 429
 244
 245
 246
 264
 265
 266
 267
 286
 287
 288
 289
 290
 308
 309
 310
 311
 330
 331
 332
 119
 120
 121
 122
 139
 140
 141
 142
 143
 159
 160
 161
 162
 163
 164
 180
 181
 182
 183
 202
 203
 204
 198
 219
 240
 241
 242
 108
 109
 110
 129
 130
 131
 132
 150
 151
 152
 153
 154
 173
 174
 175
 176
 194
 195
 196
 198
 236
 237
 238
 257
 258
 259
 260
 276
 277
 278
 279
 280
 281
 297
 298
 299
 300
 301
 318
 319
 320
 238
 239
 257
 258
 259
 260
 277
 278
 279
 280
 297
 298
 299
 317
 318
 168
 169
 189
 190
 191
 192
 193
 194
 210
 211
 212
 213
 214
 215
 216
 231
 232
 233
 234
 235
 236
 252
 253
 107
 108
 129
 130
 131
 151
 152
 153
 154
 173
 174
 175
 176
 196
 197
 8
 9
 10
 11
 12
 29
 30
 31
 32
 33
 51
 52
 53
 72
 73
 74
 93
 94
 95
 114
 115
 116
 136
 157
 178
 2
 3
 4
 5
 6
 7
 8
 9
 10
 23
 24
 25
 26
 27
 28
 29
 30
 31
 45
 46
 47
 48
 49
 50
 51
 52
 67
 68
 69
 70
 71
 89
 90
 91
 112
 156
 11
 12
 13
 14
 15
 16
 17
 18
 32
 33
 34
 35
 36
 37
 38
 39
 53
 54
 55
 56
 57
 58
 59
 75
 76
 77
 78
 79
 97
 98
 99
 118
 158
 20
 40
 41
 60
 61
 62
 80
 81
 82
 83
 100
 101
 102
 103
 120
 121
 140
 104
 124
 125
 144
 145
 146
 164
 165
 203
 245
 166
 167
 184
 185
 186
 62
 82
 83
 102
 103
 104
 123
 124
 125
 144
 145
 312
 313
 333
 334
 335
 354
 355
 356
 376
 377
 398
 268
 269
 270
 290
 291
 292
 293
 312
 313
 314
 335
 396
 418
 419
 440
 331
 334
 353
 354
 355
 356
 375
 376
 377
 397
 398
 308
 330
 352
 374
 305
 348
 369
 390
 412
 433
 303
 344
 365
 386
 406
 427
 224
 225
 352
 353
 374
 375
 396
 397
 418
 419
 440
 263
 222
 223
 177
 179
 201
 243
 261
 197
 217
 218
 215
 216
 295
 296
 315
 316
 317
 105
 106
 107
 127
 128
 239
 237
 336
 337
 338
 357
 358
 378
 339
 340
 359
 360
 379
 380
 399
 400
 420
 421
 300
 319
 320
 337
 338
 339
 340
 357
 358
 359
 360
 378
 379
 380
 399
 400
 420
 195
 254
 255
 256
 273
 274
 275
 276
 294
 295
 296
 315
 316
 336
 42
 63
 64
 84
 85
 86
 105
 126
 127
 128
 147
 148
 149
 150
 170
 171
 172
 0
 21
 22
 44
 42
 43
 63
 64
 65
 84
 85
 86
 87
 106
 109
 66
 88
 110
 132
 13
 34
 54
 75
 96
 137
 7
 28
 50
 71
 92
 135
 19
 20
 40
 41
 60
 61
 80
 81
 100
 101
 0
 21
 22
 43
 44
 65
 66
 87
 88
Eabs 1 871 double
 0.961122
 0.861531
 0.961122
 1.15882
 1.45973
 1.1491
 1.45973
 1.15882
 1.20658
 1.42217
 1.10801
 1.42217
 1.20658
 2.01209
 2.03381
 2.18946
 2.03381
 2.01209
 2.27362
 2.53686
 2.27362
 3.56145
 5.47723
 0
 5.7254
 3.56145
 2.27362
 2.53686
 2.4911
 2.01209
 2.03381
 2.18946
 1.77589
 1.5388
 1.20658
 1.42217
 1.10801
 1.63691
 1.64431
 1.15882
 1.45973
 1.1491
 1.168
 1.34369
 0.961122
 0.861531
 1.28031
 0.721393
 1.00415
 0.931811
 0.819607
 1.15882
 1.30405
 0.814227
 0.819903
 0.786583
 1.45973
 0.961122
 1.07106
 0.762404
 0.737351
 5.47723
 3.42684
 2.48597
 1.45772
 1.36615
 0.783388
 1.0454
 0.953955
 1.168
 1.28031
 0.881647
 1.06244
 0.926045
 1.34369
 0.825834
 1.15011
 0.950142
 0.775984
 0.827712
 0.627138
 0.570398
 0.808202
 0.808202
 0.570398
 0.627138
 0.827712
 0.775984
 0.950142
 1.15011
 0.825834
 1.34369
 0.926045
 1.06244
 0.881647
 1.28031
 1.168
 0.727693
 0.783543
 1.14282
 0.861531
 1.1491
 2.53686
 3.56145
 5.7254
 0.737351
 0.762404
 1.07106
 0.961122
 1.45973
 0.786583
 0.819903
 0.814227
 1.30405
 1.15882
 0.819607
 0.931811
 1.00415
 0.721393
 2.86766
 2.0702
 1.5388
 1.51911
 1.64431
 1.47829
 1.47549
 0.900509
 0.92872
 0.945288
 1.26128
 0.881647
 0.735484
 0.950142
 0.827712
 0.999795
 0.655444
 0.953955
 0.683476
 0.941197
 0.660497
 0.838157
 0.569098
 0.776621
 0.808202
 0.763782
 0.558389
 0.774341
 0.471549
 0.574169
 0.721393
 0.702207
 0.700394
 0.64154
 0.622082
 0.597552
 0.749294
 0.813288
 0.708253
 0.721235
 0.648644
 1.00415
 0.825912
 0.930181
 0.727693
 0.770454
 0.825986
 1.07106
 1.0401
 0.819903
 1.43576
 1.25738
 1.08635
 1.20658
 1.20653
 0.921148
 2.01209
 1.10801
 1.9547
 3.44753
 3.44753
 1.9547
 1.10801
 2.01209
 0.921148
 1.20653
 1.20658
 1.08635
 1.25738
 1.43576
 0.819903
 1.0401
 1.07106
 0.825986
 0.770454
 0.727693
 0.930181
 0.825912
 1.00415
 0.648644
 0.721235
 0.708253
 0.813288
 0.749294
 0.597552
 0.622082
 0.64154
 0.700394
 0.702207
 0.721393
 0.574169
 0.622082
 0.64154
 0.700394
 0.702207
 0.721393
 0.648644
 0.721235
 0.708253
 0.813288
 0.749294
 0.770454
 0.727693
 0.930181
 0.825912
 1.00415
 0.819903
 1.0401
 1.07106
 0.825986
 1.08635
 1.25738
 1.43576
 1.19523
 1.20653
 1.20658
 1.51911
 2.01209
 2.0702
 3.44753
 1.0401
 0.930181
 0.921148
 1.25738
 1.07106
 1.32216
 1.10801
 1.20653
 1.43576
 2.7989
 1.9547
 2.01209
 1.20658
 4.47214
 3.44753
 2.27362
 0.819903
 0.786583
 1.42217
 1.45973
 0.961122
 1.07106
 0.762404
 0.737351
 1.74093
 1.84817
 1.45772
 1.36615
 0.783388
 1.0454
 0.953955
 1.63691
 1.168
 1.28031
 0.881647
 1.06244
 0.926045
 0.950142
 0.775984
 4.04778
 2.86766
 2.4911
 2.7989
 2.25486
 1.5388
 1.64431
 1.32216
 1.84817
 1.47829
 0.900509
 1.47549
 0.92872
 0.881647
 0.735484
 0.655444
 3.56145
 2.53686
 2.18946
 1.42217
 1.10801
 1.63691
 1.45973
 1.1491
 1.168
 0.961122
 0.861531
 1.28031
 1.07106
 1.14282
 0.881647
 0.819903
 0.762404
 0.783543
 1.06244
 0.950142
 0.786583
 0.737351
 0.727693
 0.926045
 0.775984
 2.4911
 1.47829
 1.47549
 0.900509
 0.92872
 0.945288
 0.825834
 1.26128
 0.881647
 0.735484
 0.950142
 1.14282
 0.881647
 1.15011
 0.827712
 0.999795
 0.655444
 0.953955
 0.683476
 0.783543
 1.06244
 0.950142
 0.627138
 0.941197
 0.660497
 0.838157
 0.569098
 0.776621
 0.727693
 0.926045
 0.775984
 0.570398
 0.808202
 0.763782
 0.558389
 0.774341
 0.471549
 4.50419
 2.27362
 0.921148
 1.20653
 1.08635
 1.25738
 1.43576
 0.819903
 1.0401
 1.07106
 0.825986
 1.30405
 0.770454
 0.727693
 0.930181
 0.825912
 1.00415
 0.814227
 1.07106
 0.648644
 0.721235
 0.708253
 0.813288
 0.749294
 0.931811
 0.819903
 0.762404
 0.622082
 0.64154
 0.700394
 0.702207
 0.721393
 0.819607
 0.786583
 0.737351
 2.4911
 1.77589
 1.63691
 2.7989
 2.25486
 1.5388
 1.64431
 1.32216
 1.84817
 1.47829
 0.900509
 1.26128
 1.71353
 1.47549
 0.92872
 0.881647
 0.961122
 0.945288
 0.735484
 0.921148
 0.961122
 1.08635
 1.0401
 1.10801
 1.71353
 0.921148
 1.25738
 1.07106
 1.9547
 1.32216
 1.10801
 1.20653
 1.43576
 0.825986
 2.7989
 1.9547
 2.01209
 1.20658
 2.27362
 2.03381
 1.42217
 4.04778
 5.7254
 4.50419
 5.7254
 4.04778
 0.735484
 0.945288
 1.28031
 0.881647
 0.92872
 1.47549
 1.09975
 1.26128
 0.900509
 1.47829
 1.84817
 2.13107
 1.64431
 1.5388
 2.25486
 2.48782
 1.63691
 1.77589
 2.4911
 4.04778
 1.42217
 2.03381
 2.27362
 1.20658
 2.01209
 1.9547
 2.7989
 0.825986
 1.43576
 1.20653
 1.10801
 1.32216
 1.9547
 1.07106
 1.25738
 0.921148
 1.71353
 1.10801
 1.0401
 1.08635
 0.961122
 2.27362
 3.44753
 1.20658
 2.01209
 1.9547
 2.7989
 1.43576
 1.20653
 1.10801
 1.32216
 1.07106
 1.25738
 0.921148
 0.930181
 1.0401
 0.775984
 0.950142
 0.926045
 1.06244
 0.881647
 1.28031
 1.168
 1.63691
 0.727693
 0.783543
 1.14282
 0.861531
 1.1491
 1.10801
 2.18946
 0.737351
 0.762404
 1.07106
 0.961122
 1.45973
 1.42217
 0.786583
 0.819903
 0.655444
 0.735484
 0.881647
 0.92872
 1.47549
 0.900509
 1.47829
 1.84817
 2.13107
 1.64431
 1.5388
 2.25486
 2.48782
 2.4911
 2.86766
 0.786583
 0.737351
 0.727693
 0.737351
 0.786583
 0.819903
 0.762404
 0.783543
 0.762404
 0.819903
 1.07106
 1.14282
 1.07106
 0.961122
 0.861531
 0.961122
 1.45973
 1.1491
 1.45973
 1.42217
 1.10801
 1.42217
 2.18946
 2.53686
 3.56145
 0.622082
 0.64154
 0.700394
 0.702207
 0.721393
 0.819607
 0.786583
 0.737351
 0.727693
 0.648644
 0.721235
 0.708253
 0.813288
 0.749294
 0.931811
 0.819903
 0.762404
 0.783543
 0.770454
 0.727693
 0.930181
 0.825912
 1.00415
 0.814227
 1.07106
 1.14282
 0.819903
 1.0401
 1.07106
 0.825986
 1.30405
 1.08635
 1.25738
 1.43576
 1.20653
 2.27362
 0.737351
 0.786583
 0.819607
 0.721393
 0.702207
 0.700394
 0.64154
 0.622082
 0.762404
 0.819903
 0.931811
 0.749294
 0.813288
 0.708253
 0.721235
 0.648644
 1.07106
 0.814227
 1.00415
 0.825912
 0.930181
 0.727693
 0.770454
 1.30405
 0.825986
 1.07106
 1.0401
 0.819903
 1.43576
 1.25738
 1.08635
 1.20653
 2.27362
 0.549909
 0.62707
 0.597552
 0.71701
 0.648644
 0.622082
 0.732662
 0.770454
 0.721235
 0.64154
 0.947079
 0.819903
 0.727693
 0.708253
 0.961122
 1.08635
 1.71353
 0.700394
 0.813288
 0.702207
 0.825912
 0.749294
 0.721393
 0.825986
 1.00415
 2.03381
 1.77589
 0.931811
 0.819607
 1.15882
 1.30405
 0.814227
 0.622082
 0.721235
 0.64154
 0.727693
 0.708253
 0.700394
 0.930181
 0.813288
 0.702207
 0.825912
 0.749294
 0.999795
 0.941197
 0.655444
 0.660497
 0.763782
 0.953955
 0.838157
 0.558389
 0.569098
 0.774341
 0.471549
 1.34369
 0.825834
 1.15011
 1.26128
 0.827712
 0.627138
 0.570398
 0.999795
 0.941197
 0.808202
 0.763782
 0.71701
 0.62707
 0.696039
 0.549909
 0.945288
 0.660497
 0.950142
 0.953955
 0.838157
 0.558389
 0.683476
 0.569098
 0.774341
 0.776621
 0.471549
 1.71353
 0.961122
 0.947079
 0.732662
 1.77589
 1.34369
 0.825834
 1.15011
 0.627138
 0.570398
 2.03381
 1.15882
 1.30405
 0.814227
 0.931811
 0.819607
 1.74093
 1.84817
 0.947079
 0.950142
 0.732662
 0.683476
 0.71701
 0.776621
 0.62707
 0.696039
 0.549909
 2.86766
 3.42684
 2.48597
 3.44753
 3.44753
 3.44753
 2.86766
 3.44753
 2.86766
 2.53686
 3.56145
 1.10801
 2.18946
 0.749294
 0.825912
 0.702207
 0.813288
 0.930181
 0.763782
 0.660497
 0.655444
 0.941197
 0.999795
 3.44753
 2.03381
 0.700394
 0.708253
 0.727693
 0.64154
 0.721235
 0.622082
 0.819903
 0.947079
 0.770454
 0.732662
 0.648644
 0.71701
 0.597552
 0.62707
 0.549909
 0.597552
 1.71353
 1.08635
 0.961122
 0.708253
 0.727693
 0.819903
 0.947079
 0.64154
 0.721235
 0.770454
 0.732662
 0.622082
 0.648644
 0.71701
 0.597552
 0.62707
 0.549909
 1.77589
 0.814227
 1.30405
 1.15882
 0.819607
 0.931811
 1.00415
 0.825986
 0.721393
 0.749294
 0.825912
 0.702207
 0.813288
 0.700394
 0.471549
 0.774341
 0.569098
 0.558389
 0.838157
 0.953955
 0.763782
 0.808202
 0.941197
 0.999795
 0.570398
 0.627138
 0.827712
 1.26128
 1.15011
 0.825834
 1.34369
 0.47035
 0.696039
 0.486054
 0.641727
 0.471549
 0.776621
 0.774341
 0.569098
 0.683476
 0.558389
 0.838157
 0.953955
 0.950142
 0.660497
 0.945288
 0.962358
 0.938448
 1.28031
 1.09975
 0.819607
 0.931811
 0.814227
 1.30405
 1.15882
 2.03381
 0.819607
 0.931811
 0.814227
 1.30405
 1.15882
 2.03381
 0.597552
 0.549909
 0.62707
 0.597552
 0.71701
 0.648644
 0.732662
 0.770454
 0.947079
 0.819903
 0.47035
 0.696039
 0.486054
 0.776621
 0.641727
 0.683476
 0.962358
 0.950142
 0.938448
EdB 1 871 double
 119.656
 118.705
 119.656
 121.28
 123.285
 121.207
 123.285
 121.28
 121.631
 123.059
 120.891
 123.059
 121.631
 126.073
 126.166
 126.807
 126.166
 126.073
 127.134
 128.086
 127.134
 131.033
 134.771
 -1
 135.156
 131.033
 127.134
 128.086
 127.928
 126.073
 126.166
 126.807
 124.988
 123.744
 121.631
 123.059
 120.891
 124.281
 124.32
 121.28
 123.285
 121.207
 121.349
 122.566
 119.656
 118.705
 122.146
 117.163
 120.036
 119.387
 118.272
 121.28
 122.306
 118.215
 118.275
 117.915
 123.285
 119.656
 120.596
 117.644
 117.353
 134.771
 130.698
 127.91
 123.273
 122.71
 117.88
 120.386
 119.591
 121.349
 122.146
 118.906
 120.526
 119.333
 122.566
 118.338
 121.215
 119.556
 117.797
 118.358
 115.947
 115.124
 118.15
 118.15
 115.124
 115.947
 118.358
 117.797
 119.556
 121.215
 118.338
 122.566
 119.333
 120.526
 118.906
 122.146
 121.349
 117.239
 117.881
 121.16
 118.705
 121.207
 128.086
 131.033
 135.156
 117.353
 117.644
 120.596
 119.656
 123.285
 117.915
 118.275
 118.215
 122.306
 121.28
 118.272
 119.387
 120.036
 117.163
 129.151
 126.32
 123.744
 123.632
 124.32
 123.395
 123.379
 119.09
 119.358
 119.511
 122.016
 118.906
 117.331
 119.556
 118.358
 119.998
 116.331
 119.591
 116.694
 119.474
 116.397
 118.467
 115.104
 117.804
 118.15
 117.659
 114.939
 117.779
 113.471
 115.181
 117.163
 116.929
 116.907
 116.144
 115.877
 115.528
 117.493
 118.205
 117.004
 117.162
 116.24
 120.036
 118.339
 119.371
 117.239
 117.735
 118.339
 120.596
 120.342
 118.275
 123.142
 121.989
 120.719
 121.631
 121.631
 119.287
 126.073
 120.891
 125.822
 130.75
 130.75
 125.822
 120.891
 126.073
 119.287
 121.631
 121.631
 120.719
 121.989
 123.142
 118.275
 120.342
 120.596
 118.339
 117.735
 117.239
 119.371
 118.339
 120.036
 116.24
 117.162
 117.004
 118.205
 117.493
 115.528
 115.877
 116.144
 116.907
 116.929
 117.163
 115.181
 115.877
 116.144
 116.907
 116.929
 117.163
 116.24
 117.162
 117.004
 118.205
 117.493
 117.735
 117.239
 119.371
 118.339
 120.036
 118.275
 120.342
 120.596
 118.339
 120.719
 121.989
 123.142
 121.549
 121.631
 121.631
 123.632
 126.073
 126.32
 130.75
 120.342
 119.371
 119.287
 121.989
 120.596
 122.426
 120.891
 121.631
 123.142
 128.94
 125.822
 126.073
 121.631
 133.01
 130.75
 127.134
 118.275
 117.915
 123.059
 123.285
 119.656
 120.596
 117.644
 117.353
 124.816
 125.335
 123.273
 122.71
 117.88
 120.386
 119.591
 124.281
 121.349
 122.146
 118.906
 120.526
 119.333
 119.556
 117.797
 132.144
 129.151
 127.928
 128.94
 127.062
 123.744
 124.32
 122.426
 125.335
 123.395
 119.09
 123.379
 119.358
 118.906
 117.331
 116.331
 131.033
 128.086
 126.807
 123.059
 120.891
 124.281
 123.285
 121.207
 121.349
 119.656
 118.705
 122.146
 120.596
 121.16
 118.906
 118.275
 117.644
 117.881
 120.526
 119.556
 117.915
 117.353
 117.239
 119.333
 117.797
 127.928
 123.395
 123.379
 119.09
 119.358
 119.511
 118.338
 122.016
 118.906
 117.331
 119.556
 121.16
 118.906
 121.215
 118.358
 119.998
 116.331
 119.591
 116.694
 117.881
 120.526
 119.556
 115.947
 119.474
 116.397
 118.467
 115.104
 117.804
 117.239
 119.333
 117.797
 115.124
 118.15
 117.659
 114.939
 117.779
 113.471
 133.072
 127.134
 119.287
 121.631
 120.719
 121.989
 123.142
 118.275
 120.342
 120.596
 118.339
 122.306
 117.735
 117.239
 119.371
 118.339
 120.036
 118.215
 120.596
 116.24
 117.162
 117.004
 118.205
 117.493
 119.387
 118.275
 117.644
 115.877
 116.144
 116.907
 116.929
 117.163
 118.272
 117.915
 117.353
 127.928
 124.988
 124.281
 128.94
 127.062
 123.744
 124.32
 122.426
 125.335
 123.395
 119.09
 122.016
 124.678
 123.379
 119.358
 118.906
 119.656
 119.511
 117.331
 119.287
 119.656
 120.719
 120.342
 120.891
 124.678
 119.287
 121.989
 120.596
 125.822
 122.426
 120.891
 121.631
 123.142
 118.339
 128.94
 125.822
 126.073
 121.631
 127.134
 126.166
 123.059
 132.144
 135.156
 133.072
 135.156
 132.144
 117.331
 119.511
 122.146
 118.906
 119.358
 123.379
 120.826
 122.016
 119.09
 123.395
 125.335
 126.572
 124.32
 123.744
 127.062
 127.916
 124.281
 124.988
 127.928
 132.144
 123.059