# vtk DataFile Version 2.0
Ray Path Visualization
ASCII
DATASET POLYDATA

POINTS 5 float
 0 0 5
 -0.6 0 3
 0 0 5
 -0.375 0 0
 -0.6 0 3
LINES 2 7
 2 0 1 
 3 2 3 4 
CELL_DATA 2
FIELD FieldData 5
LaunchID 1 2 int
 98
 376
ReceiverID 1 2 int
 0
 0
Eabs 1 2 double
 3.43122
 3.43122
EdB 1 2 double
 130.709
 130.709
Phase 1 2 double
 2.36184
 2.36184
