# vtk DataFile Version 2.0
Ray Path Visualization
ASCII
DATASET POLYDATA

POINTS 6399 float
 0 0 5
 0 2 3
 0 0 5
 0 3 3
 0 0 5
 0 4 3
 0 0 5
 0 5 3
 0 0 5
 0 4.375 0
 0 7 3
 0 0 5
 0 5 0
 0 8 3
 0 0 5
 0 5.625 0
 0 9 3
 0 0 5
 0 6.25 0
 0 10 3
 0 0 5
 0 6.875 0
 0 11 3
 0 0 5
 0 7.5 0
 0 12 3
 0 0 5
 0 8.125 0
 0 13 3
 0 0 5
 0 8.75 0
 0 14 3
 0 0 5
 0 9.375 0
 0 15 3
 0 0 5
 0 10 0
 0 16 3
 0 0 5
 0 10.625 0
 0 17 3
 0 0 5
 0 11.25 0
 0 18 3
 0 0 5
 0 11.875 0
 0 19 3
 0 0 5
 0 12.5 0
 0 20 3
 0 0 5
 0 13.125 0
 0 21 3
 0 0 5
 0 13.75 0
 0 22 3
 0 0 5
 0 14.375 0
 0 23 3
 0 0 5
 0 15 0
 0 24 3
 0 0 5
 0 15.625 0
 0 25 3
 0 0 5
 0 16.25 0
 0 26 3
 0 0 5
 0 16.875 0
 0 27 3
 0 0 5
 0 17.5 0
 0 28 3
 0 0 5
 0 8 3
 0 0 5
 0 9 3
 0 0 5
 0 10 3
 0 0 5
 0 11 3
 0 0 5
 0 12 3
 0 0 5
 0 13 3
 0 0 5
 0 14 3
 0 0 5
 0 15 3
 0 0 5
 0 16 3
 0 0 5
 0 17 3
 0 0 5
 0 18 3
 0 0 5
 0 19 3
 0 0 5
 0 20 3
 0 0 5
 0 21 3
 0 0 5
 0 22 3
 0 0 5
 0 23 3
 0 0 5
 0 24 3
 0 0 5
 0 25 3
 0 0 5
 0 26 3
 0 0 5
 0 27 3
 0 0 5
 0 28 3
 0 0 5
 0 29 3
 0 0 5
 0 30 3
 0 0 5
 0 31 3
 0 0 5
 0 32 3
 0 0 5
 0 33 3
 0 0 5
 0 34 3
 0 0 5
 0 35 3
 0 0 5
 0 36 3
 0 0 5
 0 37 3
 0 0 5
 0 38 3
 0 0 5
 0 39 3
 0 0 5
 0 40 3
 0 0 5
 0 41 3
 0 0 5
 0 42 3
 0 0 5
 0 43 3
 0 0 5
 0 44 3
 0 0 5
 0 45 3
 0 0 5
 0 46 3
 0 0 5
 0 47 3
 0 0 5
 0 48 3
 0 0 5
 0 49 3
 0 0 5
 0 50 3
 0 0 5
 0 51 3
 0 0 5
 0 52 3
 0 0 5
 0 53 3
 0 0 5
 0 54 3
 0 0 5
 0 55 3
 0 0 5
 0 56 3
 0 0 5
 0 57 3
 0 0 5
 0 58 3
 0 0 5
 0 59 3
 0 0 5
 0 60 3
 0 0 5
 0 61 3
 0 0 5
 0 62 3
 0 0 5
 0 63 3
 0 0 5
 0 64 3
 0 0 5
 0 65 3
 0 0 5
 0 66 3
 0 0 5
 0 67 3
 0 0 5
 0 68 3
 0 0 5
 0 69 3
 0 0 5
 0 70 3
 0 0 5
 0 71 3
 0 0 5
 0 72 3
 0 0 5
 0 73 3
 0 0 5
 0 74 3
 0 0 5
 0 75 3
 0 0 5
 0 76 3
 0 0 5
 0 77 3
 0 0 5
 0 78 3
 0 0 5
 0 79 3
 0 0 5
 0 80 3
 0 0 5
 0 81 3
 0 0 5
 0 82 3
 0 0 5
 0 83 3
 0 0 5
 0 84 3
 0 0 5
 0 85 3
 0 0 5
 0 86 3
 0 0 5
 0 87 3
 0 0 5
 0 88 3
 0 0 5
 0 89 3
 0 0 5
 0 90 3
 0 0 5
 0 91 3
 0 0 5
 0 92 3
 0 0 5
 0 93 3
 0 0 5
 0 94 3
 0 0 5
 0 95 3
 0 0 5
 0 96 3
 0 0 5
 0 97 3
 0 0 5
 0 98 3
 0 0 5
 0 99 3
 0 0 5
 0 100 3
 0 0 5
 0 101 3
 0 0 5
 0 102 3
 0 0 5
 0 103 3
 0 0 5
 0 104 3
 0 0 5
 0 105 3
 0 0 5
 0 106 3
 0 0 5
 0 107 3
 0 0 5
 0 108 3
 0 0 5
 0 109 3
 0 0 5
 0 110 3
 0 0 5
 0 111 3
 0 0 5
 0 112 3
 0 0 5
 0 113 3
 0 0 5
 0 114 3
 0 0 5
 0 115 3
 0 0 5
 0 116 3
 0 0 5
 0 117 3
 0 0 5
 0 118 3
 0 0 5
 0 119 3
 0 0 5
 0 120 3
 0 0 5
 0 121 3
 0 0 5
 0 122 3
 0 0 5
 0 123 3
 0 0 5
 0 124 3
 0 0 5
 0 125 3
 0 0 5
 0 126 3
 0 0 5
 0 127 3
 0 0 5
 0 128 3
 0 0 5
 0 129 3
 0 0 5
 0 130 3
 0 0 5
 0 131 3
 0 0 5
 0 132 3
 0 0 5
 0 133 3
 0 0 5
 0 134 3
 0 0 5
 0 135 3
 0 0 5
 0 136 3
 0 0 5
 0 137 3
 0 0 5
 0 138 3
 0 0 5
 0 139 3
 0 0 5
 0 140 3
 0 0 5
 0 141 3
 0 0 5
 0 142 3
 0 0 5
 0 143 3
 0 0 5
 0 144 3
 0 0 5
 0 145 3
 0 0 5
 0 146 3
 0 0 5
 0 147 3
 0 0 5
 0 148 3
 0 0 5
 0 149 3
 0 0 5
 0 150 3
 0 0 5
 0 151 3
 0 0 5
 0 152 3
 0 0 5
 0 153 3
 0 0 5
 0 154 3
 0 0 5
 0 155 3
 0 0 5
 0 156 3
 0 0 5
 0 157 3
 0 0 5
 0 158 3
 0 0 5
 0 159 3
 0 0 5
 0 160 3
 0 0 5
 0 161 3
 0 0 5
 0 162 3
 0 0 5
 0 163 3
 0 0 5
 0 164 3
 0 0 5
 0 165 3
 0 0 5
 0 166 3
 0 0 5
 0 167 3
 0 0 5
 0 168 3
 0 0 5
 0 169 3
 0 0 5
 0 170 3
 0 0 5
 0 171 3
 0 0 5
 0 172 3
 0 0 5
 0 173 3
 0 0 5
 0 174 3
 0 0 5
 0 175 3
 0 0 5
 0 176 3
 0 0 5
 0 177 3
 0 0 5
 0 178 3
 0 0 5
 0 179 3
 0 0 5
 0 180 3
 0 0 5
 0 181 3
 0 0 5
 0 182 3
 0 0 5
 0 183 3
 0 0 5
 0 184 3
 0 0 5
 0 185 3
 0 0 5
 0 186 3
 0 0 5
 0 187 3
 0 0 5
 0 188 3
 0 0 5
 0 189 3
 0 0 5
 0 190 3
 0 0 5
 0 191 3
 0 0 5
 0 192 3
 0 0 5
 0 193 3
 0 0 5
 0 194 3
 0 0 5
 0 195 3
 0 0 5
 0 196 3
 0 0 5
 0 197 3
 0 0 5
 0 198 3
 0 0 5
 0 199 3
 0 0 5
 0 200 3
 0 0 5
 0 201 3
 0 0 5
 0 202 3
 0 0 5
 0 203 3
 0 0 5
 0 204 3
 0 0 5
 0 205 3
 0 0 5
 0 206 3
 0 0 5
 0 207 3
 0 0 5
 0 208 3
 0 0 5
 0 209 3
 0 0 5
 0 210 3
 0 0 5
 0 211 3
 0 0 5
 0 212 3
 0 0 5
 0 213 3
 0 0 5
 0 214 3
 0 0 5
 0 215 3
 0 0 5
 0 216 3
 0 0 5
 0 217 3
 0 0 5
 0 218 3
 0 0 5
 0 219 3
 0 0 5
 0 220 3
 0 0 5
 0 221 3
 0 0 5
 0 222 3
 0 0 5
 0 223 3
 0 0 5
 0 224 3
 0 0 5
 0 225 3
 0 0 5
 0 226 3
 0 0 5
 0 227 3
 0 0 5
 0 228 3
 0 0 5
 0 229 3
 0 0 5
 0 230 3
 0 0 5
 0 231 3
 0 0 5
 0 232 3
 0 0 5
 0 233 3
 0 0 5
 0 234 3
 0 0 5
 0 235 3
 0 0 5
 0 236 3
 0 0 5
 0 237 3
 0 0 5
 0 238 3
 0 0 5
 0 239 3
 0 0 5
 0 240 3
 0 0 5
 0 241 3
 0 0 5
 0 242 3
 0 0 5
 0 243 3
 0 0 5
 0 244 3
 0 0 5
 0 245 3
 0 0 5
 0 246 3
 0 0 5
 0 247 3
 0 0 5
 0 248 3
 0 0 5
 0 249 3
 0 0 5
 0 250 3
 0 0 5
 0 251 3
 0 0 5
 0 252 3
 0 0 5
 0 253 3
 0 0 5
 0 254 3
 0 0 5
 0 255 3
 0 0 5
 0 256 3
 0 0 5
 0 257 3
 0 0 5
 0 258 3
 0 0 5
 0 259 3
 0 0 5
 0 260 3
 0 0 5
 0 261 3
 0 0 5
 0 262 3
 0 0 5
 0 263 3
 0 0 5
 0 264 3
 0 0 5
 0 265 3
 0 0 5
 0 266 3
 0 0 5
 0 267 3
 0 0 5
 0 268 3
 0 0 5
 0 269 3
 0 0 5
 0 270 3
 0 0 5
 0 271 3
 0 0 5
 0 272 3
 0 0 5
 0 273 3
 0 0 5
 0 274 3
 0 0 5
 0 275 3
 0 0 5
 0 276 3
 0 0 5
 0 277 3
 0 0 5
 0 278 3
 0 0 5
 0 279 3
 0 0 5
 0 280 3
 0 0 5
 0 281 3
 0 0 5
 0 282 3
 0 0 5
 0 283 3
 0 0 5
 0 284 3
 0 0 5
 0 285 3
 0 0 5
 0 286 3
 0 0 5
 0 287 3
 0 0 5
 0 288 3
 0 0 5
 0 289 3
 0 0 5
 0 290 3
 0 0 5
 0 291 3
 0 0 5
 0 292 3
 0 0 5
 0 293 3
 0 0 5
 0 294 3
 0 0 5
 0 295 3
 0 0 5
 0 296 3
 0 0 5
 0 297 3
 0 0 5
 0 298 3
 0 0 5
 0 299 3
 0 0 5
 0 300 3
 0 0 5
 0 301 3
 0 0 5
 0 302 3
 0 0 5
 0 303 3
 0 0 5
 0 304 3
 0 0 5
 0 305 3
 0 0 5
 0 306 3
 0 0 5
 0 307 3
 0 0 5
 0 308 3
 0 0 5
 0 309 3
 0 0 5
 0 310 3
 0 0 5
 0 311 3
 0 0 5
 0 312 3
 0 0 5
 0 313 3
 0 0 5
 0 314 3
 0 0 5
 0 315 3
 0 0 5
 0 316 3
 0 0 5
 0 317 3
 0 0 5
 0 318 3
 0 0 5
 0 319 3
 0 0 5
 0 320 3
 0 0 5
 0 321 3
 0 0 5
 0 322 3
 0 0 5
 0 323 3
 0 0 5
 0 324 3
 0 0 5
 0 325 3
 0 0 5
 0 326 3
 0 0 5
 0 327 3
 0 0 5
 0 328 3
 0 0 5
 0 329 3
 0 0 5
 0 330 3
 0 0 5
 0 331 3
 0 0 5
 0 332 3
 0 0 5
 0 333 3
 0 0 5
 0 334 3
 0 0 5
 0 335 3
 0 0 5
 0 336 3
 0 0 5
 0 337 3
 0 0 5
 0 338 3
 0 0 5
 0 339 3
 0 0 5
 0 340 3
 0 0 5
 0 341 3
 0 0 5
 0 342 3
 0 0 5
 0 343 3
 0 0 5
 0 344 3
 0 0 5
 0 345 3
 0 0 5
 0 346 3
 0 0 5
 0 347 3
 0 0 5
 0 348 3
 0 0 5
 0 349 3
 0 0 5
 0 350 3
 0 0 5
 0 351 3
 0 0 5
 0 352 3
 0 0 5
 0 353 3
 0 0 5
 0 354 3
 0 0 5
 0 355 3
 0 0 5
 0 356 3
 0 0 5
 0 357 3
 0 0 5
 0 358 3
 0 0 5
 0 359 3
 0 0 5
 0 360 3
 0 0 5
 0 361 3
 0 0 5
 0 362 3
 0 0 5
 0 363 3
 0 0 5
 0 364 3
 0 0 5
 0 365 3
 0 0 5
 0 366 3
 0 0 5
 0 367 3
 0 0 5
 0 368 3
 0 0 5
 0 369 3
 0 0 5
 0 370 3
 0 0 5
 0 371 3
 0 0 5
 0 372 3
 0 0 5
 0 373 3
 0 0 5
 0 374 3
 0 0 5
 0 375 3
 0 0 5
 0 376 3
 0 0 5
 0 377 3
 0 0 5
 0 378 3
 0 0 5
 0 379 3
 0 0 5
 0 380 3
 0 0 5
 0 381 3
 0 0 5
 0 382 3
 0 0 5
 0 383 3
 0 0 5
 0 384 3
 0 0 5
 0 385 3
 0 0 5
 0 386 3
 0 0 5
 0 387 3
 0 0 5
 0 388 3
 0 0 5
 0 389 3
 0 0 5
 0 390 3
 0 0 5
 0 391 3
 0 0 5
 0 392 3
 0 0 5
 0 393 3
 0 0 5
 0 394 3
 0 0 5
 0 395 3
 0 0 5
 0 396 3
 0 0 5
 0 397 3
 0 0 5
 0 398 3
 0 0 5
 0 399 3
 0 0 5
 0 400 3
 0 0 5
 0 401 3
 0 0 5
 0 402 3
 0 0 5
 0 403 3
 0 0 5
 0 404 3
 0 0 5
 0 405 3
 0 0 5
 0 406 3
 0 0 5
 0 407 3
 0 0 5
 0 408 3
 0 0 5
 0 409 3
 0 0 5
 0 410 3
 0 0 5
 0 411 3
 0 0 5
 0 412 3
 0 0 5
 0 413 3
 0 0 5
 0 414 3
 0 0 5
 0 415 3
 0 0 5
 0 416 3
 0 0 5
 0 417 3
 0 0 5
 0 418 3
 0 0 5
 0 419 3
 0 0 5
 0 420 3
 0 0 5
 0 421 3
 0 0 5
 0 422 3
 0 0 5
 0 423 3
 0 0 5
 0 424 3
 0 0 5
 0 425 3
 0 0 5
 0 426 3
 0 0 5
 0 427 3
 0 0 5
 0 428 3
 0 0 5
 0 429 3
 0 0 5
 0 430 3
 0 0 5
 0 431 3
 0 0 5
 0 432 3
 0 0 5
 0 433 3
 0 0 5
 0 434 3
 0 0 5
 0 435 3
 0 0 5
 0 436 3
 0 0 5
 0 437 3
 0 0 5
 0 438 3
 0 0 5
 0 439 3
 0 0 5
 0 440 3
 0 0 5
 0 441 3
 0 0 5
 0 442 3
 0 0 5
 0 443 3
 0 0 5
 0 444 3
 0 0 5
 0 445 3
 0 0 5
 0 446 3
 0 0 5
 0 447 3
 0 0 5
 0 448 3
 0 0 5
 0 449 3
 0 0 5
 0 450 3
 0 0 5
 0 451 3
 0 0 5
 0 452 3
 0 0 5
 0 453 3
 0 0 5
 0 454 3
 0 0 5
 0 455 3
 0 0 5
 0 456 3
 0 0 5
 0 457 3
 0 0 5
 0 458 3
 0 0 5
 0 459 3
 0 0 5
 0 460 3
 0 0 5
 0 461 3
 0 0 5
 0 462 3
 0 0 5
 0 463 3
 0 0 5
 0 464 3
 0 0 5
 0 465 3
 0 0 5
 0 466 3
 0 0 5
 0 467 3
 0 0 5
 0 468 3
 0 0 5
 0 469 3
 0 0 5
 0 470 3
 0 0 5
 0 471 3
 0 0 5
 0 472 3
 0 0 5
 0 473 3
 0 0 5
 0 474 3
 0 0 5
 0 475 3
 0 0 5
 0 476 3
 0 0 5
 0 477 3
 0 0 5
 0 478 3
 0 0 5
 0 479 3
 0 0 5
 0 480 3
 0 0 5
 0 481 3
 0 0 5
 0 482 3
 0 0 5
 0 483 3
 0 0 5
 0 484 3
 0 0 5
 0 485 3
 0 0 5
 0 486 3
 0 0 5
 0 487 3
 0 0 5
 0 488 3
 0 0 5
 0 489 3
 0 0 5
 0 490 3
 0 0 5
 0 491 3
 0 0 5
 0 492 3
 0 0 5
 0 493 3
 0 0 5
 0 494 3
 0 0 5
 0 495 3
 0 0 5
 0 496 3
 0 0 5
 0 497 3
 0 0 5
 0 498 3
 0 0 5
 0 499 3
 0 0 5
 0 500 3
 0 0 5
 0 501 3
 0 0 5
 0 502 3
 0 0 5
 0 503 3
 0 0 5
 0 504 3
 0 0 5
 0 505 3
 0 0 5
 0 506 3
 0 0 5
 0 507 3
 0 0 5
 0 508 3
 0 0 5
 0 509 3
 0 0 5
 0 510 3
 0 0 5
 0 511 3
 0 0 5
 0 512 3
 0 0 5
 0 513 3
 0 0 5
 0 514 3
 0 0 5
 0 515 3
 0 0 5
 0 516 3
 0 0 5
 0 517 3
 0 0 5
 0 518 3
 0 0 5
 0 519 3
 0 0 5
 0 520 3
 0 0 5
 0 521 3
 0 0 5
 0 522 3
 0 0 5
 0 523 3
 0 0 5
 0 524 3
 0 0 5
 0 525 3
 0 0 5
 0 526 3
 0 0 5
 0 527 3
 0 0 5
 0 528 3
 0 0 5
 0 529 3
 0 0 5
 0 530 3
 0 0 5
 0 531 3
 0 0 5
 0 532 3
 0 0 5
 0 533 3
 0 0 5
 0 534 3
 0 0 5
 0 535 3
 0 0 5
 0 536 3
 0 0 5
 0 537 3
 0 0 5
 0 538 3
 0 0 5
 0 539 3
 0 0 5
 0 540 3
 0 0 5
 0 541 3
 0 0 5
 0 542 3
 0 0 5
 0 543 3
 0 0 5
 0 544 3
 0 0 5
 0 545 3
 0 0 5
 0 546 3
 0 0 5
 0 547 3
 0 0 5
 0 548 3
 0 0 5
 0 549 3
 0 0 5
 0 550 3
 0 0 5
 0 551 3
 0 0 5
 0 552 3
 0 0 5
 0 553 3
 0 0 5
 0 554 3
 0 0 5
 0 555 3
 0 0 5
 0 556 3
 0 0 5
 0 557 3
 0 0 5
 0 558 3
 0 0 5
 0 559 3
 0 0 5
 0 560 3
 0 0 5
 0 561 3
 0 0 5
 0 562 3
 0 0 5
 0 563 3
 0 0 5
 0 564 3
 0 0 5
 0 565 3
 0 0 5
 0 566 3
 0 0 5
 0 567 3
 0 0 5
 0 568 3
 0 0 5
 0 569 3
 0 0 5
 0 570 3
 0 0 5
 0 571 3
 0 0 5
 0 572 3
 0 0 5
 0 573 3
 0 0 5
 0 574 3
 0 0 5
 0 575 3
 0 0 5
 0 576 3
 0 0 5
 0 577 3
 0 0 5
 0 578 3
 0 0 5
 0 579 3
 0 0 5
 0 580 3
 0 0 5
 0 581 3
 0 0 5
 0 582 3
 0 0 5
 0 583 3
 0 0 5
 0 584 3
 0 0 5
 0 585 3
 0 0 5
 0 586 3
 0 0 5
 0 587 3
 0 0 5
 0 588 3
 0 0 5
 0 589 3
 0 0 5
 0 590 3
 0 0 5
 0 591 3
 0 0 5
 0 592 3
 0 0 5
 0 593 3
 0 0 5
[...]
CELL_DATA 3133
FIELD FieldData 5
LaunchID 1 3133 int
 5
 5
 5
 5
 5
 5
 5
 5
 5
 5
 5
 5
 5
 5
 5
 5
 5
 5
 5
 5
 5
 5
 5
 5
 5
 5
 18
 18
 18
 18
 18
 18
 18
 18
 18
 18
 18
 18
 18
 18
 18
 18
 18
 18
 18
 18
 18
 18
 18
 18
 18
 18
 18
 18
 18
 18
 18
 18
 18
 18
 18
 18
 18
 18
 18
 18
 18
 18
 18
 18
 18
 18
 18
 18
 18
 18
 18
 18
 18
 18
 18
 18
 18
 18
 18
 18
 18
 18
 18
 18
 18
 18
 18
 18
 18
 18
 18
 18
 18
 18
 18
 18
 18
 18
 18
 18
 18
 18
 18
 18
 18
 18
 18
 18
 18
 18
 18
 18
 18
 18
 18
 18
 18
 18
 18
 18
 18
 18
 18
 18
 18
 18
 18
 18
 18
 18
 18
 18
 18
 18
 18
 18
 18
 18
 18
 18
 18
 18
 18
 18
 18
 18
 18
 18
 18
 18
 18
 18
 18
 18
 18
 18
 18
 18
 18
 18
 18
 18
 18
 18
 18
 18
 18
 18
 18
 18
 18
 18
 18
 18
 18
 18
 18
 18
 18
 18
 18
 18
 18
 18
 18
 18
 18
 18
 18
 18
 18
 18
 18
 18
 18
 18
 18
 18
 18
 18
 18
 18
 18
 18
 18
 18
 18
 18
 18
 18
 18
 18
 18
 18
 18
 18
 18
 18
 18
 18
 18
 18
 18
 18
 18
 18
 18
 18
 18
 18
 18
 18
 18
 18
 18
 18
 18
 18
 18
 18
 18
 18
 18
 18
 18
 18
 18
 18
 18
 18
 18
 18
 18
 18
 18
 18
 18
 18
 18
 18
 18
 18
 18
 18
 18
 18
 18
 18
 18
 18
 18
 18
 18
 18
 18
 18
 18
 18
 18
 18
 18
 18
 18
 18
 18
 18
 18
 18
 18
 18
 18
 18
 18
 18
 18
 18
 18
 18
 18
 18
 18
 18
 18
 18
 18
 18
 18
 18
 18
 18
 18
 18
 18
 18
 18
 18
 18
 18
 18
 18
 18
 18
 18
 18
 18
 18
 18
 18
 18
 18
 18
 18
 18
 18
 18
 18
 18
 18
 18
 18
 18
 18
 18
 18
 18
 18
 18
 18
 18
 18
 18
 18
 18
 18
 18
 18
 18
 18
 18
 18
 18
 18
 18
 18
 18
 18
 18
 18
 18
 18
 18
 18
 18
 18
 18
 18
 18
 18
 18
 18
 18
 18
 18
 18
 18
 18
 18
 18
 18
 18
 18
 18
 18
 18
 18
 18
 18
 18
 18
 18
 18
 18
 18
 18
 18
 18
 18
 18
 18
 18
 18
 18
 18
 18
 18
 18
 18
 18
 18
 18
 18
 18
 18
 18
 18
 18
 18
 18
 18
 18
 18
 18
 18
 18
 18
 18
 18
 18
 18
 18
 18
 18
 18
 18
 18
 18
 18
 18
 18
 18
 18
 18
 18
 18
 18
 18
 18
 18
 18
 18
 18
 18
 18
 18
 18
 18
 18
 18
 18
 18
 18
 18
 18
 18
 18
 18
 18
 18
 18
 18
 18
 18
 18
 18
 18
 18
 18
 18
 18
 18
 18
 18
 18
 18
 18
 18
 18
 18
 18
 18
 18
 18
 18
 18
 18
 18
 18
 18
 18
 18
 18
 18
 18
 18
 18
 18
 18
 18
 18
 18
 18
 18
 18
 18
 18
 18
 18
 18
 18
 18
 18
 18
 18
 18
 18
 18
 18
 18
 18
 18
 18
 18
 18
 18
 18
 18
 18
 18
 18
 18
 18
 18
 18
 18
 18
 18
 18
 18
 18
 18
 18
 18
 18
 18
 18
 18
 18
 18
 18
 18
 18
 18
 18
 18
 18
 18
 18
 18
 18
 18
 18
 18
 18
 18
 18
 18
 18
 18
 18
 18
 18
 18
 18
 18
 18
 18
 18
 18
 18
 18
 18
 18
 18
 18
 18
 18
 18
 18
 18
 18
 18
 18
 18
 18
 18
 18
 18
 18
 18
 18
 18
 18
 18
 18
 18
 18
 18
 18
 18
 18
 18
 18
 18
 18
 18
 18
 18
 18
 18
 18
 18
 18
 18
 18
 18
 18
 18
 18
 18
 18
 18
 18
 18
 18
 18
 18
 18
 18
 18
 18
 18
 18
 18
 18
 18
 18
 18
 18
 18
 18
 18
 18
 18
 18
 18
 18
 18
 18
 18
 18
 18
 18
 18
 18
 18
 18
 18
 18
 18
 18
 18
 18
 18
 18
 18
 18
 18
 18
 18
 18
 18
 18
 18
 18
 18
 18
 18
 18
 18
 18
 18
 18
 18
 18
 18
 18
 18
 18
 18
 18
 18
 18
 18
 18
 18
 18
 18
 18
 18
 18
 18
 18
 18
 18
 18
 18
 18
 18
 18
 18
 18
 18
 18
 18
 18
 18
 18
 18
 18
 18
 18
 18
 18
 18
 18
 18
 18
 18
 18
 18
 18
 18
 18
 18
 18
 18
 18
 18
 18
 18
 18
 18
 18
 18
 18
 18
 18
 18
 18
 18
 18
 18
 18
 18
 18
 18
 18
 18
 18
 18
 18
 18
 18
 18
 18
 18
 18
 18
 18
 18
 18
 18
 18
 18
 18
 18
 18
 18
 18
 18
 18
 18
 18
 18
 18
 18
 18
 18
 18
 18
 18
 18
 18
 18
 18
 18
 18
 18
 18
 18
 18
 18
 18
 18
 18
 18
 18
 18
 18
 18
 18
 18
 18
 18
 18
 18
 18
 18
 18
 18
 18
 18
 18
 18
 18
 18
 18
 18
 18
 18
 18
 18
 18
 18
 18
 18
 18
 18
 18
 18
 18
 18
 18
 18
 18
 18
 18
 18
 18
 18
 18
 18
 18
 18
 18
 18
 18
 18
 18
 18
 18
 18
 18
 18
 18
 18
 18
 18
 18
 18
 18
 18
 18
 18
 18
 18
 18
 18
 18
 18
 18
 18
 18
 18
 18
 18
 18
 18
 18
 18
 18
 18
 18
 18
 18
 18
 18
 18
 18
 18
 18
 18
 18
 18
 18
 18
 18
 18
 18
 18
 18
 18
 18
 18
 18
 18
 18
 18
 18
 18
 18
 18
 18
 18
 18
 18
 18
 18
 18
 18
 18
 18
 18
 18
 18
 18
 18
 18
 18
 18
 18
 18
 18
 18
 18
 18
 18
 18
 18
 18
 18
 18
 18
 18
 18
 18
 18
 18
 18
 18
 18
 18
 18
 18
 18
 18
 18
 18
 18
 18
 18
 18
 18
 18
 18
 18
 18
 18
 18
 18
 18
 18
 18
 18
 18
 18
 18
 18
 18
 18
 18
 18
 18
 18
 18
 18
 18
 18
 18
 18
 18
 18
 18
 18
 18
 18
 18
 18
 18
 18
 18
 18
 18
 18
 18
 18
 18
 18
 18
 18
 18
 18
 18
 18
 18
 18
 18
 18
 18
 18
 18
 18
 18
 18
 18
 18
 18
 18
 18
 18
 18
 18
 18
 18
 18
 18
 18
 18
 18
 18
 18
 18
 18
 18
 18
 18
 18
 18
 18
 18
 18
 18
 18
 18
 18
 18
 18
 18
 18
 18
 18
 18
 18
 18
 18
 18
 18
 18
 18
 18
 18
 18
 18
 18
 18
 18
 18
 18
 18
 18
 18
 18
 18
 18
 18
 18
 18
 18
 18
 18
 18
 18
 18
 18
 18
 18
 18
 18
 18
 18
 18
 18
 18
 18
 18
 18
 18
 18
 18
 18
 18
 18
 18
 18
 18
 18
 18
 18
 18
 18
 18
 18
 18
 18
 18
 18
 18
 18
 18
 18
 18
 18
 18
 18
 18
 18
 18
 18
 18
 18
 18
 18
 18
 18
 18
 18
 18
 18
 18
 18
 18
 18
 18
 18
 18
 18
 18
 18
 18
 18
 18
 18
 18
 18
 18
 18
 18
 18
 18
 18
 18
 18
 18
 18
 18
 18
 18
 18
 18
 18
 18
 18
 18
 18
 18
 18
 18
 18
 18
 18
 18
 18
 18
 18
 18
 18
 18
 18
 18
 18
 18
 18
 18
 18
 18
 18
 18
 18
 18
 18
 18
 18
 18
 18
 18
 18
 18
 18
 18
 18
 18
 18
 18
 18
 18
 18
 18
 18
 18
 18
 18
 18
 18
 18
 18
 18
 18
 18
 18
 18
 18
 18
 18
 18
 18
 18
 18
 18
 18
 18
 18
 18
 18
 18
 18
 18
 18
 18
 18
 18
 18
 18
 18
 18
 18
 18
 18
 18
 18
 18
 18
 18
 18
 18
 18
 18
 18
 18
 18
 18
 18
 18
 18
 18
 18
 18
 18
 18
 18
 18
 18
 18
 18
 18
 18
 18
 18
 18
 18
 18
 18
 18
 18
 18
 18
 18
 18
 18
 18
 18
 18
 18
 18
 18
 18
 18
 18
 18
 18
 18
 18
 18
 18
 18
 18
 18
 18
 18
 18
 18
 18
 18
 18
 18
 18
 18
 18
 18
 18
 18
 18
 18
 18
 18
 18
 18
 18
 18
 18
 18
 18
 18
 18
 18
 18
 18
 18
 18
 18
 18
 18
 18
 18
 18
 18
 18
 18
 18
 18
 18
 18
 18
 18
 18
 18
 18
 18
 18
 18
 18
 18
 18
 18
 18
 18
 18
 18
 18
 18
 18
 18
 18
 18
 18
 18
 18
 18
 18
 18
 18
 18
 18
 18
 18
 18
 18
 18
 18
 18
 18
 18
 18
 18
 18
 18
 18
 18
 18
 18
 18
 18
 18
 18
 18
 18
 18
 18
 18
 18
 18
 18
 18
 18
 18
 18
 18
 18
 18
 18
 18
 18
 18
 18
 18
 18
 18
 18
 18
 18
 18
 18
 18
 18
 18
 18
 18
 18
 18
 18
 18
 18
 18
 18
 18
 18
 18
 18
 18
 18
 18
 18
 18
 18
 18
 18
 18
 18
 18
 18
 18
 18
 18
 18
 18
 18
 18
 18
 18
 18
 18
 18
 18
 18
 18
 18
 18
 18
 18
 18
 18
 18
 18
 18
 18
 18
 18
 18
 18
 18
 18
 18
 18
 18
 18
 18
 18
 18
 18
 18
 18
 18
 18
 18
 18
 18
 18
 18
 18
 18
 18
 18
 18
 18
 18
 18
 18
 18
 18
 18
 18
 18
 18
 18
 18
 18
 18
 18
 18
 18
 18
 18
 18
 18
 18
 18
 18
 18
 18
 18
 18
 18
 18
 18
 18
 18
 18
 18
 18
 18
 18
 18
 18
 18
 18
 18
 18
 18
 18
 18
 18
 18
 18
 18
 18
 18
 18
 18
 18
 18
 18
 18
 18
 18
 18
 18
 18
 18
 18
 18
 18
 18
 18
 18
 18
 18
 18
 18
 18
 18
 18
 18
 18
 18
 18
 18
 18
 18
 18
 18
 18
 18
 18
 18
 18
 18
 18
 18
 18
 18
 18
 18
 18
 18
 18
 18
 18
 18
 18
 18
 18
 18
 18
 18
 18
 18
 18
 18
 18
 18
 18
 18
 18
 18
 18
 18
 18
 18
 18
 18
 18
 18
 18
 18
 18
 18
 18
 18
 18
 18
 18
 18
 18
 18
 18
 18
 18
 18
 18
 18
 18
 18
 18
 18
 18
 18
 18
 18
 18
 18
 18
 18
 18
 18
 18
 18
 18
 18
 18
 18
 18
 18
 18
 18
 18
 18
 18
 18
 18
 18
 18
 18
 18
 18
 18
 18
 18
 18
 18
 18
 18
 18
 18
 18
 18
 18
 18
 18
 18
 18
 18
 18
 18
 18
 18
 18
 18
 18
 18
 18
 18
 18
 18
 18
 18
 18
 18
 18
 18
 18
 18
 18
 18
 18
 18
 18
 18
 18
 18
 18
 18
 18
 18
 18
 18
 18
 18
 18
 18
 18
 18
 18
 18
 18
 18
 18
 18
 18
 18
 18
 18
 18
 18
 18
 18
 18
 18
 18
 18
 18
 18
 18
 18
 18
 18
 18
 18
 18
 18
 18
 18
 18
 18
 18
 18
 18
 18
 18
 18
 18
 18
 18
 18
 18
 18
 18
 18
 18
 18
 18
 18
 18
 18
 18
 18
 18
 18
 18
 18
 18
 18
 18
 18
 18
 18
 18
 18
 18
 18
 18
 18
 18
 18
 18
 18
 18
 18
 18
 18
 18
 18
 18
 18
 18
 18
 18
 18
 18
 18
 18
 18
 18
 18
 18
 18
 18
 18
 18
 18
 18
 18
 18
 18
 18
 18
 18
 18
 18
 18
 18
 18
 18
 18
 18
 18
 18
 18
 18
 18
 18
 18
 18
 18
 18
 18
 18
 18
 18
 18
 18
 18
 18
 18
 18
 18
 18
 18
 18
 18
 18
 18
 18
 18
 18
 18
 18
 18
 18
 18
 18
 18
 18
 18
 18
 18
 18
 18
 18
 18
 18
 18
 18
 18
 18
 18
 18
 18
 18
 18
 18
 18
 18
 18
 18
 18
 18
 18
 18
 18
 18
 18
 18
 18
 18
 18
 18
 18
 18
 18
 18
 18
 18
 18
 18
 18
 18
 18
 18
 18
 18
 18
 18
 18
 18
 18
 18
 18
 18
 18
 18
 18
 18
 18
 18
 18
 18
 18
 18
 18
 18
 18
 18
 18
 18
 18
 18
 18
 18
 18
 18
 18
 18
 18
 18
 18
 18
 18
 18
 18
 18
 18
 18
 18
 18
 18
 18
 18
 18
 18
 18
 18
 18
 18
 18
 18
 18
 18
 18
 18
 18
 18
 18
 18
 18
 18
 18
 18
 18
 18
 18
 18
 18
 18
 18
 18
 18
 18
 18
 18
 18
 18
 18
 18
 18
 18
 18
 18
 18
 18
 18
 18
 18
 18
 18
 18
 18
 18
 18
 18
 18
 18
 18
 18
 18
 18
 18
 18
 18
 18
 18
 18
 18
 18
 18
 18
 18
 18
 18
 18
 18
 18
 18
 18
 18
 18
 18
 18
 18
 18
 18
 18
 18
 18
 18
 18
 18
 18
 18
 18
 18
 18
 18
 18
 18
 18
 18
 18
 18
 18
 18
 18
 18
 18
 18
 18
 18
 18
 18
 18
 18
 18
 18
 18
 18
 18
 18
 18
 18
 18
 18
 18
 18
 18
 18
 18
 18
 18
 18
 18
 18
 18
 18
 18
 18
 18
 18
 18
 18
 18
 18
 18
 18
 18
 18
 18
 18
 18
 18
 18
 18
 18
 18
 18
 18
 18
 18
 18
 18
 18
 18
 18
 18
 18
 18
 18
 18
 18
 18
 18
 18
 18
 18
 18
 18
 18
 18
 18
 18
 18
 18
 18
 18
 18
 18
 18
 18
 18
 18
 18
 18
 18
 18
 18
 18
 18
 18
 18
 18
 18
 18
 18
 18
 18
 18
 18
 18
 18
 18
 18
 18
 18
 18
 18
 18
 18
 18
 18
 18
 18
 18
 18
 18
 18
 18
 18
 18
 18
 18
 18
 18
 18
 18
 18
 18
 18
 18
 18
 18
 18
 18
 18
 18
 18
 18
 18
 18
 18
 18
 18
 18
 18
 18
 18
 18
 18
 18
 18
 18
 18
 18
 18
 18
 18
 18
 18
 18
 18
 18
 18
 18
 18
 18
 18
 18
 18
 18
 18
 18
 18
 18
 18
 18
 18
 18
 18
 18
 18
 18
 18
 18
 18
 18
 18
 18
 18
 18
 18
 18
 18
 18
 18
 18
 18
 18
 18
 18
 18
 18
 18
 18
 18
 18
 18
 18
 18
 18
 18
 18
 18
 18
 18
 18
 18
 18
 18
 18
 18
 18
 18
 18
 18
 18
 18
 18
 18
 18
 18
 18
 18
 18
 18
 18
 18
 18
 18
 18
 18
 18
 18
 18
 18
 18
 18
 18
 18
 18
 18
 18
 18
 18
 18
 18
 18
 18
 18
 18
 18
 18
 18
 18
 18
 18
 18
 18
 18
 18
 18
 18
 18
 18
 18
 18
 18
 18
 18
 18
 18
 18
 18
 18
 18
 18
 18
 18
 18
 18
 18
 18
 18
 18
 18
 18
 18
 18
 18
 18
 18
 18
 18
 18
 18
 18
 18
 18
 18
 18
 18
 18
 18
 18
 18
 18
 18
 18
 18
 18
 18
 18
 18
 18
 18
 18
 18
 18
 18
 18
 18
 18
 18
 18
 18
 18
 18
 18
 18
 18
 18
 18
 18
 18
 18
 18
 18
 18
 18
 18
 18
 18
 18
 18
 18
 18
 18
 18
 18
 18
 18
 18
 18
 18
 18
 18
 18
 18
 18
 18
 18
 18
 18
 18
 18
 18
 18
 18
 18
 18
 18
 18
 18
 18
 18
 18
 18
 18
 18
 18
 18
 18
 18
 18
 18
 18
 18
 18
 18
 18
 18
 18
 18
 18
 18
 18
 18
 18
 18
 18
 18
 18
 18
 18
 18
 18
 18
 18
 18
 18
 18
 18
 18
 18
 18
 18
 18
 18
 18
 18
 18
 18
 18
 18
 18
 18
 18
 18
 18
 18
 18
 18
 18
 18
 18
 18
 18
 18
 18
 18
 18
 18
 18
 18
 18
 18
 18
 18
 18
 18
 18
 18
 18
 18
 18
 18
 18
 18
 18
 18
 18
 18
 18
 18
 18
 18
 18
 18
 18
 18
 18
 18
 18
 18
 18
 18
 18
 18
 18
 18
 18
 18
 18
 18
 18
 18
 18
 18
 18
 18
 18
 18
 18
 18
 18
 18
 18
 18
 18
 18
 18
 18
 18
 18
 18
 18
 18
 18
 18
 18
 18
 18
 18
 18
 18
 18
 18
 18
 18
 18
 18
 18
 18
 18
 18
 18
 18
 18
 18
 18
 18
 18
 18
 18
 18
 18
 18
 18
 18
 18
 18
 18
 18
 18
 18
 18
 18
 18
 18
 18
 18
 18
 18
 18
 18
 18
 18
 18
 18
 18
 18
 18
 18
 18
 18
 18
 18
 18
 18
 18
 18
 18
 18
 18
 18
 18
 18
 18
 18
 18
 18
 18
 18
 18
 18
 18
 18
 18
 18
 18
 18
 18
 18
 18
 18
 18
 18
 18
 18
 18
 18
 18
 18
 18
 18
 18
 18
 18
 18
 18
 18
 18
 18
 18
 18
 18
 18
 18
 18
 18
 18
 18
 18
 18
 18
 18
 18
 18
 18
 18
 18
 18
 18
 18
 18
 18
 18
 18
 18
 18
 18
 18
 18
 18
 18
 18
 18
 18
 18
 18
 18
 18
 18
 18
 18
 18
 18
 18
 18
 18
 18
 18
 18
 18
 18
 18
 18
 18
 18
 18
 18
 18
 18
 18
 18
 18
 18
 18
 18
 18
 18
 18
 18
 18
 18
 18
 18
 18
 18
 18
 18
 18
 18
 18
 18
 18
 18
 18
 18
 18
 18
 18
 18
 18
 18
 18
 18
 18
 18
 18
 18
 18
 18
 18
 18
 18
 18
 18
 18
 18
 18
 18
 18
 18
 18
 18
 18
 18
 18
 18
 18
 18
 18
 18
 18
 18
 18
 18
 18
 18
 18
 18
 18
 18
 18
 18
 18
 18
 18
 18
 18
 18
 18
 18
 18
 18
 18
 18
 18
 18
 18
 18
 18
 18
 18
 18
 18
 18
 18
 18
 18
 18
 18
 18
 18
 18
 18
 18
 18
 18
 18
 18
 18
 18
 18
 18
 18
 18
 18
 18
 18
 18
 18
 18
 18
 18
 18
 18
 18
 18
 18
 18
 18
 18
 18
 18
 18
 18
 18
 18
 18
 18
 18
 18
 18
 18
 18
 18
 18
 18
 18
 18
 18
 18
 18
 18
 18
 18
 18
 18
 18
 18
 18
 18
 18
 18
 18
 26
 28
 28
 60
 60
 60
 60
 60
 60
 60
 60
 60
 60
 60
 60
 60
 60
 60
 60
 60
 60
 60
 60
 60
 60
 60
 60
 60
 60
 60
 60
 60
 60
 60
 60
 60
 60
 60
 60
 60
 60
 60
 60
 60
 60
 60
 60
 60
 60
 60
 60
 60
 60
 60
 60
 60
 60
 60
 60
 60
 60
 60
 60
 60
 60
 60
 60
 60
 60
 60
 60
 60
 60
 60
 60
 60
 60
 60
 60
 60
 60
 60
 60
 60
 60
 60
 60
 60
 60
 60
 60
 60
 60
 60
 60
 60
 60
 60
 60
 60
 60
 60
 60
 60
 60
 60
 60
 60
 60
 60
 91
 91
 97
 97
 99
ReceiverID 1 3133 int
 2
 3
 4
 5
 7
 8
 9
 10
 11
 12
 13
 14
 15
 16
 17
 18
 19
 20
 21
 22
 23
 24
 25
 26
 27
 28
 8
 9
 10
 11
 12
 13
 14
 15
 16
 17
 18
 19
 20
 21
 22
 23
 24
 25
 26
 27
 28
 29
 30
 31
 32
 33
 34
 35
 36
 37
 38
 39
 40
 41
 42
 43
 44
 45
 46
 47
 48
 49
 50
 51
 52
 53
 54
 55
 56
 57
 58
 59
 60
 61
 62
 63
 64
 65
 66
 67
 68
 69
 70
 71
 72
 73
 74
 75
 76
 77
 78
 79
 80
 81
 82
 83
 84
 85
 86
 87
 88
 89
 90
 91
 92
 93
 94
 95
 96
 97
 98
 99
 100
 101
 102
 103
 104
 105
 106
 107
 108
 109
 110
 111
 112
 113
 114
 115
 116
 117
 118
 119
 120
 121
 122
 123
 124
 125
 126
 127
 128
 129
 130
 131
 132
 133
 134
 135
 136
 137
 138
 139
 140
 141
 142
 143
 144
 145
 146
 147
 148
 149
 150
 151
 152
 153
 154
 155
 156
 157
 158
 159
 160
 161
 162
 163
 164
 165
 166
 167
 168
 169
 170
 171
 172
 173
 174
 175
 176
 177
 178
 179
 180
 181
 182
 183
 184
 185
 186
 187
 188
 189
 190
 191
 192
 193
 194
 195
 196
 197
 198
 199
 200
 201
 202
 203
 204
 205
 206
 207
 208
 209
 210
 211
 212
 213
 214
 215
 216
 217
 218
 219
 220
 221
 222
 223
 224
 225
 226
 227
 228
 229
 230
 231
 232
 233
 234
 235
 236
 237
 238
 239
 240
 241
 242
 243
 244
 245
 246
 247
 248
 249
 250
 251
 252
 253
 254
 255
 256
 257
 258
 259
 260
 261
 262
 263
 264
 265
 266
 267
 268
 269
 270
 271
 272
 273
 274
 275
 276
 277
 278
 279
 280
 281
 282
 283
 284
 285
 286
 287
 288
 289
 290
 291
 292
 293
 294
 295
 296
 297
 298
 299
 300
 301
 302
 303
 304
 305
 306
 307
 308
 309
 310
 311
 312
 313
 314
 315
 316
 317
 318
 319
 320
 321
 322
 323
 324
 325
 326
 327
 328
 329
 330
 331
 332
 333
 334
 335
 336
 337
 338
 339
 340
 341
 342
 343
 344
 345
 346
 347
 348
 349
 350
 351
 352
 353
 354
 355
 356
 357
 358
 359
 360
 361
 362
 363
 364
 365
 366
 367
 368
 369
 370
 371
 372
 373
 374
 375
 376
 377
 378
 379
 380
 381
 382
 383
 384
 385
 386
 387
 388
 389
 390
 391
 392
 393
 394
 395
 396
 397
 398
 399
 400
 401
 402
 403
 404
 405
 406
 407
 408
 409
 410
 411
 412
 413
 414
 415
 416
 417
 418
 419
 420
 421
 422
 423
 424
 425
 426
 427
 428
 429
 430
 431
 432
 433
 434
 435
 436
 437
 438
 439
 440
 441
 442
 443
 444
 445
 446
 447
 448
 449
 450
 451
 452
 453
 454
 455
 456
 457
 458
 459
 460
 461
 462
 463
 464
 465
 466
 467
 468
 469
 470
 471
 472
 473
 474
 475
 476
 477
 478
 479
 480
 481
 482
 483
 484
 485
 486
 487
 488
 489
 490
 491
 492
 493
 494
 495
 496
 497
 498
 499
 500
 501
 502
 503
 504
 505
 506
 507
 508
 509
 510
 511
 512
 513
 514
 515
 516
 517
 518
 519
 520
 521
 522
 523
 524
 525
 526
 527
 528
 529
 530
 531
 532
 533
 534
 535
 536
 537
 538
 539
 540
 541
 542
 543
 544
 545
 546
 547
 548
 549
 550
 551
 552
 553
 554
 555
 556
 557
 558
 559
 560
 561
 562
 563
 564
 565
 566
 567
 568
 569
 570
 571
 572
 573
 574
 575
 576
 577
 578
 579
 580
 581
 582
 583
 584
 585
 586
 587
 588
 589
 590
 591
 592
 593
 594
 595
 596
 597
 598
 599
 600
 601
 602
 603
 604
 605
 606
 607
 608
 609
 610
 611
 612
 613
 614
 615
 616
 617
 618
 619
 620
 621
 622
 623
 624
 625
 626
 627
 628
 629
 630
 631
 632
 633
 634
 635
 636
 637
 638
 639
 640
 641
 642
 643
 644
 645
 646
 647
 648
 649
 650
 651
 652
 653
 654
 655
 656
 657
 658
 659
 660
 661
 662
 663
 664
 665
 666
 667
 668
 669
 670
 671
 672
 673
 674
 675
 676
 677
 678
 679
 680
 681
 682
 683
 684
 685
 686
 687
 688
 689
 690
 691
 692
 693
 694
 695
 696
 697
 698
 699
 700
 701
 702
 703
 704
 705
 706
 707
 708
 709
 710
 711
 712
 713
 714
 715
 716
 717
 718
 719
 720
 721
 722
 723
 724
 725
 726
 727
 728
 729
 730
 731
 732
 733
 734
 735
 736
 737
 738
 739
 740
 741
 742
 743
 744
 745
 746
 747
 748
 749
 750
 751
 752
 753
 754
 755
 756
 757
 758
 759
 760
 761
 762
 763
 764
 765
 766
 767
 768
 769
 770
 771
 772
 773
 774
 775
 776
 777
 778
 779
 780
 781
 782
 783
 784
 785
 786
 787
 788
 789
 790
 791
 792
 793
 794
 795
 796
 797
 798
 799
 800
 801
 802
 803
 804
 805
 806
 807
 808
 809
 810
 811
 812
 813
 814
 815
 816
 817
 818
 819
 820
 821
 822
 823
 824
 825
 826
 827
 828
 829
 830
 831
 832
 833
 834
 835
 836
 837
 838
 839
 840
 841
 842
 843
 844
 845
 846
 847
 848
 849
 850
 851
 852
 853
 854
 855
 856
 857
 858
 859
 860
 861
 862
 863
 864
 865
 866
 867
 868
 869
 870
 871
 872
 873
 874
 875
 876
 877
 878
 879
 880
 881
 882
 883
 884
 885
 886
 887
 888
 889
 890
 891
 892
 893
 894
 895
 896
 897
 898
 899
 900
 901
 902
 903
 904
 905
 906
 907
 908
 909
 910
 911
 912
 913
 914
 915
 916
 917
 918
 919
 920
 921
 922
 923
 924
 925
 926
 927
 928
 929
 930
 931
 932
 933
 934
 935
 936
 937
 938
 939
 940
 941
 942
 943
 944
 945
 946
 947
 948
 949
 950
 951
 952
 953
 954
 955
 956
 957
 958
 959
 960
 961
 962
 963
 964
 965
 966
 967
 968
 969
 970
 971
 972
 973
 974
 975
 976
 977
 978
 979
 980
 981
 982
 983
 984
 985
 986
 987
 988
 989
 990
 991
 992
 993
 994
 995
 996
 997
 998
 999
 1000
 1001
 1002
 1003
 1004
 1005
 1006
 1007
 1008
 1009
 1010
 1011
 1012
 1013
 1014
 1015
 1016
 1017
 1018
 1019
 1020
 1021
 1022
 1023
 1024
 1025
 1026
 1027
 1028
 1029
 1030
 1031
 1032
 1033
 1034
 1035
 1036
 1037
 1038
 1039
 1040
 1041
 1042
 1043
 1044
 1045
 1046
 1047
 1048
 1049
 1050
 1051
 1052
 1053
 1054
 1055
 1056
 1057
 1058
 1059
 1060
 1061
 1062
 1063
 1064
 1065
 1066
 1067
 1068
 1069
 1070
 1071
 1072
 1073
 1074
 1075
 1076
 1077
 1078
 1079
 1080
 1081
 1082
 1083
 1084
 1085
 1086
 1087
 1088
 1089
 1090
 1091
 1092
 1093
 1094
 1095
 1096
 1097
 1098
 1099
 1100
 1101
 1102
 1103
 1104
 1105
 1106
 1107
 1108
 1109
 1110
 1111
 1112
 1113
 1114
 1115
 1116
 1117
 1118
 1119
 1120
 1121
 1122
 1123
 1124
 1125
 1126
 1127
 1128
 1129
 1130
 1131
 1132
 1133
 1134
 1135
 1136
 1137
 1138
 1139
 1140
 1141
 1142
 1143
 1144
 1145
 1146
 1147
 1148
 1149
 1150
 1151
 1152
 1153
 1154
 1155
 1156
 1157
 1158
 1159
 1160
 1161
 1162
 1163
 1164
 1165
 1166
 1167
 1168
 1169
 1170
 1171
 1172
 1173
 1174
 1175
 1176
 1177
 1178
 1179
 1180
 1181
 1182
 1183
 1184
 1185
 1186
 1187
 1188
 1189
 1190
 1191
 1192
 1193
 1194
 1195
 1196
 1197
 1198
 1199
 1200
 1201
 1202
 1203
 1204
 1205
 1206
 1207
 1208
 1209
 1210
 1211
 1212
 1213
 1214
 1215
 1216
 1217
 1218
 1219
 1220
 1221
 1222
 1223
 1224
 1225
 1226
 1227
 1228
 1229
 1230
 1231
 1232
 1233
 1234
 1235
 1236
 1237
 1238
 1239
 1240
 1241
 1242
 1243
 1244
 1245
 1246
 1247
 1248
 1249
 1250
 1251
 1252
 1253
 1254
 1255
 1256
 1257
 1258
 1259
 1260
 1261
 1262
 1263
 1264
 1265
 1266
 1267
 1268
 1269
 1270
 1271
 1272
 1273
 1274
 1275
 1276
 1277
 1278
 1279
 1280
 1281
 1282
 1283
 1284
 1285
 1286
 1287
 1288
 1289
 1290
 1291
 1292
 1293
 1294
 1295
 1296
 1297
 1298
 1299
 1300
 1301
 1302
 1303
 1304
 1305
 1306
 1307
 1308
 1309
 1310
 1311
 1312
 1313
 1314
 1315
 1316
 1317
 1318
 1319
 1320
 1321
 1322
 1323
 1324
 1325
 1326
 1327
 1328
 1329
 1330
 1331
 1332
 1333
 1334
 1335
 1336
 1337
 1338
 1339
 1340
 1341
 1342
 1343
 1344
 1345
 1346
 1347
 1348
 1349
 1350
 1351
 1352
 1353
 1354
 1355
 1356
 1357
 1358
 1359
 1360
 1361
 1362
 1363
 1364
 1365
 1366
 1367
 1368
 1369
 1370
 1371
 1372
 1373
 1374
 1375
 1376
 1377
 1378
 1379
 1380
 1381
 1382
 1383
 1384
 1385
 1386
 1387
 1388
 1389
 1390
 1391
 1392
 1393
 1394
 1395
 1396
 1397
 1398
 1399
 1400
 1401
 1402
 1403
 1404
 1405
 1406
 1407
 1408