# vtk DataFile Version 2.0
Ray Path Visualization
ASCII
DATASET POLYDATA

POINTS 1755 float
 0 0 5
 -2 0 3
 0 0 5
 -1 0 3
 0 0 5
 1 0 3
 0 0 5
 2 0 3
 0 0 5
 0 2 3
 0 0 5
 0 3 3
 0 0 5
 0 4 3
 0 0 5
 0 5 3
 0 0 5
 0 -5 3
 0 0 5
 0 -4 3
 0 0 5
 0 -3 3
 0 0 5
 0 -2 3
 0 0 5
 6 4 3
 0 0 5
 7 4 3
 0 0 5
 7 5 3
 0 0 5
 8 4 3
 0 0 5
 8 5 3
 0 0 5
 8 6 3
 0 0 5
 8 7 3
 0 0 5
 9 4 3
 0 0 5
 9 5 3
 0 0 5
 9 6 3
 0 0 5
 9 7 3
 0 0 5
 9 8 3
 0 0 5
 10 5 3
 0 0 5
 10 6 3
 0 0 5
 10 7 3
 0 0 5
 10 8 3
 0 0 5
 10 9 3
 0 0 5
 -10 5 3
 0 0 5
 -10 6 3
 0 0 5
 -10 7 3
 0 0 5
 -10 8 3
 0 0 5
 -10 9 3
 0 0 5
 -9 4 3
 0 0 5
 -9 5 3
 0 0 5
 -9 6 3
 0 0 5
 -9 7 3
 0 0 5
 -9 8 3
 0 0 5
 -8 4 3
 0 0 5
 -8 5 3
 0 0 5
 -8 6 3
 0 0 5
 -8 7 3
 0 0 5
 -7 4 3
 0 0 5
 -7 5 3
 0 0 5
 -6 4 3
 0 0 5
 6 -4 3
 0 0 5
 7 -5 3
 0 0 5
 7 -4 3
 0 0 5
 8 -7 3
 0 0 5
 8 -6 3
 0 0 5
 8 -5 3
 0 0 5
 8 -4 3
 0 0 5
 9 -8 3
 0 0 5
 9 -7 3
 0 0 5
 9 -6 3
 0 0 5
 9 -5 3
 0 0 5
 9 -4 3
 0 0 5
 10 -9 3
 0 0 5
 10 -8 3
 0 0 5
 10 -7 3
 0 0 5
 10 -6 3
 0 0 5
 10 -5 3
 0 0 5
 -10 -9 3
 0 0 5
 -10 -8 3
 0 0 5
 -10 -7 3
 0 0 5
 -10 -6 3
 0 0 5
 -10 -5 3
 0 0 5
 -9 -8 3
 0 0 5
 -9 -7 3
 0 0 5
 -9 -6 3
 0 0 5
 -9 -5 3
 0 0 5
 -9 -4 3
 0 0 5
 -8 -7 3
 0 0 5
 -8 -6 3
 0 0 5
 -8 -5 3
 0 0 5
 -8 -4 3
 0 0 5
 -7 -5 3
 0 0 5
 -7 -4 3
 0 0 5
 -6 -4 3
 0 0 5
 -4.375 5 0
 -7 8 3
 0 0 5
 -7 8 3
 0 0 5
 -7 9 3
 0 0 5
 -6 7 3
 0 0 5
 -6 8 3
 0 0 5
 -6 9 3
 0 0 5
 -5 5 3
 0 0 5
 -5 6 3
 0 0 5
 -5 7 3
 0 0 5
 -5 8 3
 0 0 5
 -5 9 3
 0 0 5
 -4 4 3
 0 0 5
 -4 5 3
 0 0 5
 -4 6 3
 0 0 5
 -4 7 3
 0 0 5
 -4 8 3
 0 0 5
 -4 9 3
 0 0 5
 -3 3 3
 0 0 5
 -3 4 3
 0 0 5
 -3 5 3
 0 0 5
 -3 6 3
 0 0 5
 -3 7 3
 0 0 5
 -3 8 3
 0 0 5
 -2 3 3
 0 0 5
 -2 4 3
 0 0 5
 -2 5 3
 0 0 5
 -2 6 3
 0 0 5
 -2.5 -6.25 0
 -4 -10 3
 0 0 5
 -2.5 -5.625 0
 -4 -9 3
 0 0 5
 -1.875 -6.25 0
 -3 -10 3
 0 0 5
 -1.875 -5.625 0
 -3 -9 3
 0 0 5
 -1.875 -5 0
 -3 -8 3
 0 0 5
 -1.875 -4.375 0
 -3 -7 3
 0 0 5
 -1.875 -3.75 0
 -3 -6 3
 0 0 5
 -1.875 -3.125 0
 -3 -5 3
 0 0 5
 -1.875 -2.5 0
 -3 -4 3
 0 0 5
 -1.875 -1.875 0
 -3 -3 3
 0 0 5
 -1.25 -6.25 0
 -2 -10 3
 0 0 5
 -1.25 -5.625 0
 -2 -9 3
 0 0 5
 -1.25 -5 0
 -2 -8 3
 0 0 5
 -1.25 -4.375 0
 -2 -7 3
 0 0 5
 -1.25 -3.75 0
 -2 -6 3
 0 0 5
 -1.25 -3.125 0
 -2 -5 3
 0 0 5
 -1.25 -2.5 0
 -2 -4 3
 0 0 5
 -1.25 -1.875 0
 -2 -3 3
 0 0 5
 -1.25 -1.25 0
 -2 -2 3
 0 0 5
 -0.625 -6.25 0
 -1 -10 3
 0 0 5
 -0.625 -5.625 0
 -1 -9 3
 0 0 5
 -0.625 -5 0
 -1 -8 3
 0 0 5
 -0.625 -4.375 0
 -1 -7 3
 0 0 5
 -0.625 -3.75 0
 -1 -6 3
 0 0 5
 -0.625 -3.125 0
 -1 -5 3
 0 0 5
 -0.625 -2.5 0
 -1 -4 3
 0 0 5
 -0.625 -1.875 0
 -1 -3 3
 0 0 5
 -0.625 -1.25 0
 -1 -2 3
 0 0 5
 -0.625 -0.625 0
 -1 -1 3
 0 0 5
 -1 9 3
 0 0 5
 0 -6.25 0
 0 -10 3
 0 0 5
 0 -5.625 0
 0 -9 3
 0 0 5
 0 -5 0
 0 -8 3
 0 0 5
 0 -4.375 0
 0 -7 3
 0 0 5
 0 -3.75 0
 0 -6 3
 0 0 5
 0 -3.125 0
 0 -5 3
 0 0 5
 0 -2.5 0
 0 -4 3
 0 0 5
 0 -1.875 0
 0 -3 3
 0 0 5
 0 -1.25 0
 0 -2 3
 0 0 5
 0 -0.625 0
 0 -1 3
 0 0 5
 0 0 0
 0 0 3
 0 0 5
 0 8 3
 0 0 5
 0 9 3
 0 0 5
 0.625 -6.25 0
 1 -10 3
 0 0 5
 0.625 -5.625 0
 1 -9 3
 0 0 5
 0.625 -5 0
 1 -8 3
 0 0 5
 0.625 -4.375 0
 1 -7 3
 0 0 5
 0.625 -3.75 0
 1 -6 3
 0 0 5
 0.625 -3.125 0
 1 -5 3
 0 0 5
 0.625 -2.5 0
 1 -4 3
 0 0 5
 0.625 -1.875 0
 1 -3 3
 0 0 5
 0.625 -1.25 0
 1 -2 3
 0 0 5
 0.625 -0.625 0
 1 -1 3
 0 0 5
 0.625 0 0
 1 0 3
 0 0 5
 0.625 0.625 0
 1 1 3
 0 0 5
 1 9 3
 0 0 5
 1.25 -6.25 0
 2 -10 3
 0 0 5
 1.25 -5.625 0
 2 -9 3
 0 0 5
 1.25 -5 0
 2 -8 3
 0 0 5
 1.25 -4.375 0
 2 -7 3
 0 0 5
 1.25 -3.75 0
 2 -6 3
 0 0 5
 1.25 -3.125 0
 2 -5 3
 0 0 5
 1.25 -2.5 0
 2 -4 3
 0 0 5
 1.25 -1.875 0
 2 -3 3
 0 0 5
 1.25 -1.25 0
 2 -2 3
 0 0 5
 1.25 -0.625 0
 2 -1 3
 0 0 5
 1.25 0 0
 2 0 3
 0 0 5
 1.25 0.625 0
 2 1 3
 0 0 5
 1.25 1.25 0
 2 2 3
 0 0 5
 1.875 -6.25 0
 3 -10 3
 0 0 5
 1.875 -5.625 0
 3 -9 3
 0 0 5
 1.875 -5 0
 3 -8 3
 0 0 5
 1.875 -4.375 0
 3 -7 3
 0 0 5
 1.875 -3.75 0
 3 -6 3
 0 0 5
 1.875 -3.125 0
 3 -5 3
 0 0 5
 1.875 -2.5 0
 3 -4 3
 0 0 5
 1.875 -1.875 0
 3 -3 3
 0 0 5
 1.875 1.875 0
 3 3 3
 0 0 5
 2.5 -6.25 0
 4 -10 3
 0 0 5
 2.5 -5.625 0
 4 -9 3
 0 0 5
 2 3 3
 0 0 5
 2 4 3
 0 0 5
 2 5 3
 0 0 5
 2 6 3
 0 0 5
 3 3 3
 0 0 5
 3 4 3
 0 0 5
 3 5 3
 0 0 5
 3 6 3
 0 0 5
 3 7 3
 0 0 5
 3 8 3
 0 0 5
 4 4 3
 0 0 5
 4 5 3
 0 0 5
 4 6 3
 0 0 5
 4 7 3
 0 0 5
 4 8 3
 0 0 5
 4 9 3
 0 0 5
 3.125 2.5 0
 5 4 3
 0 0 5
 5 5 3
 0 0 5
 5 6 3
 0 0 5
 5 7 3
 0 0 5
 5 8 3
 0 0 5
 5 9 3
 0 0 5
 3.75 2.5 0
 6 4 3
 0 0 5
 3.75 3.125 0
 6 5 3
 0 0 5
 3.75 3.75 0
 6 6 3
 0 0 5
 6 7 3
 0 0 5
 6 8 3
 0 0 5
 6 9 3
 0 0 5
 4.375 1.875 0
 7 3 3
 0 0 5
 4.375 2.5 0
 7 4 3
 0 0 5
 4.375 3.125 0
 7 5 3
 0 0 5
 4.375 3.75 0
 7 6 3
 0 0 5
 4.375 4.375 0
 7 7 3
 0 0 5
 7 8 3
 0 0 5
 7 9 3
 0 0 5
 5 1.875 0
 8 3 3
 0 0 5
 5 2.5 0
 8 4 3
 0 0 5
 5 3.125 0
 8 5 3
 0 0 5
 5 3.75 0
 8 6 3
 0 0 5
 5 4.375 0
 8 7 3
 0 0 5
 5 5 0
 8 8 3
 0 0 5
 5.625 1.875 0
 9 3 3
 0 0 5
 5.625 2.5 0
 9 4 3
 0 0 5
 5.625 3.125 0
 9 5 3
 0 0 5
 5.625 3.75 0
 9 6 3
 0 0 5
 5.625 4.375 0
 9 7 3
 0 0 5
 5.625 5 0
 9 8 3
 0 0 5
 5.625 5.625 0
 9 9 3
 0 0 5
 6.25 1.875 0
 10 3 3
 0 0 5
 6.25 2.5 0
 10 4 3
 0 0 5
 6.25 3.125 0
 10 5 3
 0 0 5
 6.25 3.75 0
 10 6 3
 0 0 5
 6.25 4.375 0
 10 7 3
 0 0 5
 6.25 5 0
 10 8 3
 0 0 5
 6.25 5.625 0
 10 9 3
 0 0 5
 6.25 6.25 0
 10 10 3
 0 0 5
 8 0 3
 0 0 5
 9 -1 3
 0 0 5
 9 0 3
 0 0 5
 9 1 3
 0 0 5
 10 -1 3
 0 0 5
 10 0 3
 0 0 5
 10 1 3
 0 0 5
 2 1 3
 0 0 5
 3 1 3
 0 0 5
 3 2 3
 0 0 5
 4 1 3
 0 0 5
 4 2 3
 0 0 5
 5 1 3
 0 0 5
 5 2 3
 0 0 5
 2 -1 3
 0 0 5
 3 -2 3
 0 0 5
 3 -1 3
 0 0 5
 4 -2 3
 0 0 5
 4 -1 3
 0 0 5
 5 -2 3
 0 0 5
 5 -1 3
 0 0 5
 0 1 3
 0 0 5
 1 1 3
 0 0 5
 1 2 3
 0 0 5
 -1 1 3
 0 0 5
 -1 2 3
 0 0 5
 0 0 3
 0 0 5
 -1 -2 3
 0 0 5
 -1 -1 3
 0 0 5
 0 -1 3
 0 0 5
 1 -2 3
 0 0 5
 1 -1 3
 0 0 5
 2 -6 3
 0 0 5
 2 -5 3
 0 0 5
 2 -4 3
 0 0 5
 2 -3 3
 0 0 5
 3 -8 3
 0 0 5
 3 -7 3
 0 0 5
 3 -6 3
 0 0 5
 3 -5 3
 0 0 5
 3 -4 3
 0 0 5
 3 -3 3
 0 0 5
 4 -10 3
 0 0 5
 4 -9 3
 0 0 5
 4 -8 3
 0 0 5
 4 -7 3
 0 0 5
 4 -6 3
 0 0 5
 4 -5 3
 0 0 5
 4 -4 3
 0 0 5
 5 -10 3
 0 0 5
 5 -9 3
 0 0 5
 5 -8 3
 0 0 5
 5 -7 3
 0 0 5
 5 -6 3
 0 0 5
 5 -5 3
 0 0 5
 6 -10 3
 0 0 5
 6 -9 3
 0 0 5
 6 -8 3
 0 0 5
 6 -7 3
 0 0 5
 7 -10 3
 0 0 5
 7 -9 3
 0 0 5
 7 -8 3
 0 0 5
 8 -10 3
 0 0 5
 -1 -10 3
 0 0 5
 -1 -9 3
 0 0 5
 0 -10 3
 0 0 5
 0 -9 3
 0 0 5
 0 -8 3
 0 0 5
 1 -10 3
 0 0 5
 1 -9 3
 0 0 5
 -8 -10 3
 0 0 5
 -7 -10 3
 0 0 5
 -7 -9 3
 0 0 5
 -7 -8 3
 0 0 5
 -6 -10 3
 0 0 5
 -6 -9 3
 0 0 5
 -6 -8 3
 0 0 5
 -6 -7 3
 0 0 5
 -5 -10 3
 0 0 5
 -5 -9 3
 0 0 5
 -5 -8 3
 0 0 5
 -5 -7 3
 0 0 5
 -5 -6 3
 0 0 5
 -5 -5 3
 0 0 5
 -4 -10 3
 0 0 5
 -4 -9 3
 0 0 5
 -4 -8 3
 0 0 5
 -4 -7 3
 0 0 5
 -4 -6 3
 0 0 5
 -4 -5 3
 0 0 5
 -4 -4 3
 0 0 5
 -3 -8 3
 0 0 5
 -3 -7 3
 0 0 5
 -3 -6 3
 0 0 5
 -3 -5 3
 0 0 5
 -3 -4 3
 0 0 5
 -3 -3 3
 0 0 5
 -2 -6 3
 0 0 5
 -2 -5 3
 0 0 5
 -2 -4 3
 0 0 5
 -2 -3 3
 0 0 5
 -10 -1 3
 0 0 5
 -10 0 3
 0 0 5
 -10 1 3
 0 0 5
 -9 -1 3
 0 0 5
 -9 0 3
 0 0 5
 -9 1 3
 0 0 5
 -8 0 3
 0 0 5
 -5 -2 3
 0 0 5
 -5 -1 3
 0 0 5
 -4 -2 3
 0 0 5
 -4 -1 3
 0 0 5
 -3 -2 3
 0 0 5
 -3 -1 3
 0 0 5
 -2 -1 3
 0 0 5
 -5 1 3
 0 0 5
 -5 2 3
 0 0 5
 -4 1 3
 0 0 5
 -4 2 3
 0 0 5
 -3 1 3
 0 0 5
 -3 2 3
 0 0 5
 -2 1 3
 0 0 5
 -9 9 3
 0 0 5
 -8 8 3
 0 0 5
 -8 9 3
 0 0 5
 -7 6 3
 0 0 5
 -7 7 3
 0 0 5
 -6 5 3
 0 0 5
 -6 6 3
 0 0 5
 -5 4 3
 0 0 5
 -4 3 3
 0 0 5
 -6.25 -5 0
 -10 -8 3
 0 0 5
 -6.25 -4.375 0
 -10 -7 3
 0 0 5
 -6.25 -3.75 0
 -10 -6 3
 0 0 5
 -6.25 -3.125 0
 -10 -5 3
 0 0 5
 -6.25 -2.5 0
 -10 -4 3
 0 0 5
 -6.25 -1.875 0
 -10 -3 3
 0 0 5
 -6.25 -1.25 0
 -10 -2 3
 0 0 5
 -6.25 -0.625 0
 -10 -1 3
 0 0 5
 -6.25 0 0
 -10 0 3
 0 0 5
 -6.25 0.625 0
 -10 1 3
 0 0 5
 -6.25 1.25 0
 -10 2 3
 0 0 5
 -6.25 1.875 0
 -10 3 3
 0 0 5
 -6.25 2.5 0
 -10 4 3
 0 0 5
 -6.25 3.125 0
 -10 5 3
 0 0 5
 -6.25 3.75 0
 -10 6 3
 0 0 5
 -6.25 4.375 0
 -10 7 3
 0 0 5
 -6.25 5 0
 -10 8 3
 0 0 5
 -6.25 5.625 0
 -10 9 3
 0 0 5
 -6.25 6.25 0
 -10 10 3
 0 0 5
 -5.625 -3.125 0
 -9 -5 3
 0 0 5
 -5.625 -2.5 0
 -9 -4 3
 0 0 5
 -5.625 -1.875 0
 -9 -3 3
 0 0 5
 -5.625 -1.25 0
 -9 -2 3
 0 0 5
 -5.625 -0.625 0
 -9 -1 3
 0 0 5
 -5.625 0 0
 -9 0 3
 0 0 5
 -5.625 0.625 0
 -9 1 3
 0 0 5
 -5.625 1.25 0
 -9 2 3
 0 0 5
 -5.625 1.875 0
 -9 3 3
 0 0 5
 -5.625 2.5 0
 -9 4 3
 0 0 5
 -5.625 3.125 0
 -9 5 3
 0 0 5
 -5.625 3.75 0
 -9 6 3
 0 0 5
 -5.625 4.375 0
 -9 7 3
 0 0 5
 -5.625 5 0
 -9 8 3
 0 0 5
 -5.625 5.625 0
 -9 9 3
 0 0 5
 -5.625 6.25 0
 -9 10 3
 0 0 5
 -5 -1.875 0
 -8 -3 3
 0 0 5
 -5 -1.25 0
 -8 -2 3
 0 0 5
 -5 -0.625 0
 -8 -1 3
 0 0 5
 -5 0 0
 -8 0 3
 0 0 5
 -5 0.625 0
 -8 1 3
 0 0 5
 -5 1.25 0
 -8 2 3
 0 0 5
 -5 1.875 0
 -8 3 3
 0 0 5
 -5 2.5 0
 -8 4 3
 0 0 5
 -5 3.125 0
 -8 5 3
 0 0 5
 -5 3.75 0
 -8 6 3
 0 0 5
 -5 4.375 0
 -8 7 3
 0 0 5
 -5 5 0
 -8 8 3
 0 0 5
 -4.375 -0.625 0
 -7 -1 3
 0 0 5
 -4.375 0 0
 -7 0 3
 0 0 5
 -4.375 0.625 0
 -7 1 3
 0 0 5
 -4.375 1.25 0
 -7 2 3
 0 0 5
 -4.375 1.875 0
 -7 3 3
 0 0 5
 -4.375 2.5 0
 -7 4 3
 0 0 5
 -4.375 3.125 0
 -7 5 3
 0 0 5
 -4.375 3.75 0
 -7 6 3
 0 0 5
 -4.375 4.375 0
 -7 7 3
 0 0 5
 -3.75 0.625 0
 -6 1 3
 0 0 5
 -3.75 1.25 0
 -6 2 3
 0 0 5
 -3.75 1.875 0
 -6 3 3
 0 0 5
 -3.75 2.5 0
 -6 4 3
 0 0 5
 -3.75 3.125 0
 -6 5 3
 0 0 5
 -3.75 3.75 0
 -6 6 3
 0 0 5
 -3.75 4.375 0
 -6 7 3
 0 0 5
 -3.125 1.875 0
 -5 3 3
 0 0 5
 -3.125 2.5 0
 -5 4 3
 0 0 5
 -3.125 3.125 0
 -5 5 3
 0 0 5
 -3.125 3.75 0
 -5 6 3
 0 0 5
 -2.5 2.5 0
 -4 4 3
 0 0 5
 -2.5 3.125 0
 -4 5 3
 0 0 5
 -1.875 3.75 0
 -3 6 3
 0 0 5
 -1.875 4.375 0
 -3 7 3
 0 0 5
 -1.875 5 0
 -3 8 3
 0 0 5
 -1.25 4.375 0
 -2 7 3
 0 0 5
 -2 9 3
 0 0 5
 -1 4 3
 0 0 5
 -1 5 3
 0 0 5
 -1 6 3
 0 0 5
 -1 7 3
 0 0 5
 -1 8 3
 0 0 5
 0 6 3
 0 0 5
 0 7 3
 0 0 5
 1 4 3
 0 0 5
 1 5 3
 0 0 5
 1 6 3
 0 0 5
 1 7 3
 0 0 5
 1 8 3
 0 0 5
 2 9 3
 0 0 5
 -6.25 -6.25 0
 -10 -10 3
 0 0 5
 -5.625 -6.25 0
 -9 -10 3
 0 0 5
 -5.625 -5.625 0
 -9 -9 3
 0 0 5
 -5 -6.25 0
 -8 -10 3
 0 0 5
 -5 -5.625 0
 -8 -9 3
 0 0 5
 -5 -5 0
 -8 -8 3
 0 0 5
 -4.375 -6.25 0
 -7 -10 3
 0 0 5
 -4.375 -5.625 0
 -7 -9 3
 0 0 5
 -4.375 -5 0
 -7 -8 3
 0 0 5
 -4.375 -4.375 0
 -7 -7 3
 0 0 5
 -3.75 -6.25 0
 -6 -10 3
 0 0 5
 -3.75 -5.625 0
 -6 -9 3
 0 0 5
 -3.75 -5 0
 -6 -8 3
[...]
CELL_DATA 725
FIELD FieldData 5
LaunchID 1 725 int
 2
 2
 3
 3
 5
 5
 5
 5
 7
 7
 7
 7
 8
 8
 8
 8
 8
 8
 8
 8
 8
 8
 8
 8
 8
 8
 8
 8
 8
 9
 9
 9
 9
 9
 9
 9
 9
 9
 9
 9
 9
 9
 9
 9
 9
 9
 10
 10
 10
 10
 10
 10
 10
 10
 10
 10
 10
 10
 10
 10
 10
 10
 10
 11
 11
 11
 11
 11
 11
 11
 11
 11
 11
 11
 11
 11
 11
 11
 11
 11
 16
 17
 17
 17
 17
 17
 17
 17
 17
 17
 17
 17
 17
 17
 17
 17
 17
 17
 17
 17
 17
 17
 17
 17
 17
 17
 17
 18
 18
 18
 18
 18
 18
 18
 18
 18
 18
 18
 18
 18
 18
 18
 18
 18
 18
 18
 18
 18
 18
 18
 18
 18
 18
 18
 18
 18
 18
 18
 18
 18
 18
 18
 18
 18
 18
 18
 18
 18
 18
 18
 18
 18
 18
 18
 18
 18
 18
 18
 18
 18
 18
 18
 18
 18
 18
 18
 18
 18
 18
 18
 18
 18
 18
 18
 18
 18
 18
 18
 18
 18
 18
 18
 18
 18
 18
 18
 18
 19
 19
 19
 19
 19
 19
 19
 19
 19
 19
 19
 19
 19
 19
 19
 19
 19
 19
 19
 19
 19
 19
 19
 19
 19
 19
 19
 19
 19
 19
 19
 19
 19
 19
 19
 19
 19
 19
 19
 19
 19
 19
 19
 19
 19
 19
 19
 19
 19
 19
 19
 19
 19
 19
 19
 19
 22
 22
 22
 22
 22
 22
 22
 24
 24
 24
 24
 24
 24
 24
 25
 25
 25
 25
 25
 25
 25
 26
 26
 26
 27
 27
 28
 29
 29
 29
 30
 30
 31
 31
 31
 31
 31
 31
 31
 31
 31
 31
 31
 31
 31
 31
 31
 31
 31
 31
 31
 31
 31
 31
 31
 31
 31
 31
 31
 31
 31
 31
 31
 32
 32
 32
 32
 32
 32
 32
 34
 34
 34
 34
 34
 34
 34
 34
 34
 34
 34
 34
 34
 34
 34
 34
 34
 34
 34
 34
 34
 34
 34
 34
 34
 34
 34
 34
 34
 34
 34
 39
 39
 39
 39
 39
 39
 39
 40
 40
 40
 40
 40
 40
 40
 41
 41
 41
 41
 41
 41
 41
 58
 58
 58
 58
 58
 58
 58
 58
 58
 59
 59
 59
 59
 59
 59
 59
 59
 59
 59
 59
 59
 59
 59
 59
 59
 59
 59
 59
 59
 59
 59
 59
 59
 59
 59
 59
 59
 59
 59
 59
 59
 59
 59
 59
 59
 59
 59
 59
 59
 59
 59
 59
 59
 59
 59
 59
 59
 59
 59
 59
 59
 59
 59
 59
 59
 59
 59
 59
 59
 59
 59
 59
 59
 59
 59
 59
 59
 59
 59
 59
 59
 59
 60
 60
 60
 60
 60
 60
 60
 60
 60
 60
 60
 60
 60
 60
 61
 61
 61
 61
 61
 61
 61
 61
 61
 61
 61
 61
 61
 61
 61
 61
 61
 61
 61
 61
 61
 61
 61
 61
 61
 61
 61
 61
 61
 62
 65
 65
 67
 67
 68
 68
 68
 68
 68
 68
 68
 68
 68
 68
 68
 68
 68
 68
 68
 68
 68
 68
 68
 68
 68
 68
 68
 68
 68
 68
 68
 68
 68
 68
 68
 68
 68
 68
 68
 68
 68
 68
 68
 68
 68
 68
 68
 68
 68
 68
 68
 68
 68
 68
 68
 68
 68
 68
 68
 68
 68
 68
 68
 68
 68
 68
 68
 68
 68
 68
 68
 68
 68
 68
 68
 68
 68
 68
 68
 68
 68
 68
 68
 68
 68
 68
 68
 68
 68
 68
 68
 68
 68
 68
 68
 68
 70
 70
 70
 70
 70
 70
 70
 70
 71
 71
 71
 71
 71
 71
 71
 71
 77
 77
 77
 77
 77
 77
 77
 77
 81
 81
 81
 81
 81
 81
 81
 81
 84
 84
 84
 84
 85
 85
 85
 85
 85
 85
 85
 87
 89
 89
 89
 89
 89
 90
 90
 90
 90
 90
 92
 105
 107
 110
 110
 110
 110
 111
 113
 113
 113
 113
 113
 113
 113
 113
 115
 115
 115
 115
 115
 115
 115
 115
 115
 115
 115
 115
 115
 116
 116
 116
 122
 123
 123
 123
 125
 125
 126
 126
 126
 126
 126
 126
 126
 126
 126
 145
 145
 145
 145
 145
 145
 145
 145
 147
 147
 147
 147
 147
 147
 147
 147
 149
 149
 149
 149
 149
 149
 149
 149
 149
 150
 150
 151
 151
 151
 151
 152
 152
 152
 154
 156
 159
ReceiverID 1 725 int
 178
 199
 241
 262
 222
 223
 224
 225
 215
 216
 217
 218
 350
 371
 372
 392
 393
 394
 395
 413
 414
 415
 416
 417
 435
 436
 437
 438
 439
 15
 16
 17
 18
 19
 35
 36
 37
 38
 39
 56
 57
 58
 59
 77
 78
 98
 342
 362
 363
 381
 382
 383
 384
 401
 402
 403
 404
 405
 421
 422
 423
 424
 425
 1
 2
 3
 4
 5
 23
 24
 25
 26
 27
 45
 46
 47
 48
 68
 69
 90
 81
 81
 82
 101
 102
 103
 120
 121
 122
 123
 124
 140
 141
 142
 143
 144
 145
 160
 161
 162
 163
 164
 165
 181
 182
 183
 184
 126
 127
 147
 148
 149
 150
 151
 152
 153
 154
 168
 169
 170
 171
 172
 173
 174
 175
 176
 189
 190
 191
 192
 193
 194
 195
 196
 197
 198
 208
 210
 211
 212
 213
 214
 215
 216
 217
 218
 219
 220
 228
 229
 231
 232
 233
 234
 235
 236
 237
 238
 239
 240
 241
 242
 250
 252
 253
 254
 255
 256
 257
 258
 259
 260
 261
 262
 263
 264
 273
 274
 275
 276
 277
 278
 279
 280
 286
 294
 295
 265
 266
 267
 268
 286
 287
 288
 289
 290
 291
 308
 309
 310
 311
 312
 313
 329
 330
 331
 332
 333
 334
 350
 351
 352
 353
 354
 355
 370
 371
 372
 373
 374
 375
 376
 391
 392
 393
 394
 395
 396
 412
 413
 414
 415
 416
 417
 418
 433
 434
 435
 436
 437
 438
 439
 440
 388
 408
 409
 410
 429
 430
 431
 263
 284
 285
 305
 306
 326
 327
 261
 281
 282
 302
 303
 323
 324
 221
 242
 243
 200
 201
 220
 197
 198
 219
 239
 240
 256
 257
 258
 259
 275
 276
 277
 278
 279
 280
 294
 295
 296
 297
 298
 299
 300
 315
 316
 317
 318
 319
 320
 336
 337
 338
 339
 357
 358
 359
 378
 189
 190
 210
 211
 212
 231
 232
 42
 63
 64
 65
 84
 85
 86
 87
 105
 106
 107
 108
 109
 110
 126
 127
 128
 129
 130
 131
 132
 149
 150
 151
 152
 153
 154
 172
 173
 174
 175
 9
 10
 11
 30
 31
 32
 52
 113
 114
 134
 135
 155
 156
 177
 116
 117
 137
 138
 158
 159
 179
 40
 60
 61
 79
 80
 99
 100
 119
 139
 2
 3
 4
 5
 6
 7
 8
 9
 10
 11
 12
 13
 14
 15
 16
 17
 18
 19
 20
 26
 27
 28
 29
 30
 31
 32
 33
 34
 35
 36
 37
 38
 39
 40
 41
 49
 50
 51
 52
 53
 54
 55
 56
 57
 58
 59
 60
 72
 73
 74
 75
 76
 77
 78
 79
 80
 95
 96
 97
 98
 99
 100
 101
 118
 119
 120
 121
 140
 141
 163
 164
 165
 185
 187
 203
 204
 205
 206
 207
 226
 227
 245
 246
 247
 248
 249
 271
 0
 21
 22
 42
 43
 44
 63
 64
 65
 66
 84
 85
 86
 87
 88
 105
 106
 107
 108
 109
 110
 128
 129
 130
 131
 132
 166
 185
 186
 202
 308
 330
 244
 269
 270
 281
 282
 283
 284
 285
 292
 296
 297
 298
 299
 300
 301
 302
 303
 304
 305
 306
 307
 315
 316
 317
 318
 319
 320
 321
 322
 323
 324
 325
 326
 327
 328
 336
 337
 338
 339
 340
 341
 342
 343
 344
 345
 346
 347
 348
 349
 357
 358
 359
 360
 361
 362
 363
 364
 365
 366
 367
 368
 369
 378
 379
 380
 381
 382
 383
 384
 385
 386
 387
 388
 389
 390
 399
 400
 401
 402
 403
 404
 405
 406
 407
 408
 409
 420
 421
 422
 423
 424
 425
 426
 427
 397
 410
 411
 428
 429
 430
 431
 432
 307
 329
 351
 352
 373
 374
 396
 418
 369
 390
 391
 411
 412
 432
 433
 434
 365
 385
 386
 406
 407
 426
 427
 428
 328
 348
 349
 370
 304
 325
 346
 347
 367
 368
 389
 283
 344
 345
 364
 366
 387
 301
 321
 322
 341
 343
 264
 238
 196
 235
 236
 237
 255
 260
 340
 360
 361
 379
 380
 399
 400
 420
 168
 169
 191
 192
 193
 194
 195
 213
 214
 233
 234
 252
 253
 254
 273
 274
 171
 147
 148
 170
 21
 43
 0
 22
 44
 66
 67
 88
 89
 111
 133
 12
 13
 14
 33
 34
 54
 55
 75
 6
 7
 8
 28
 29
 49
 50
 71
 53
 73
 74
 76
 94
 95
 96
 115
 136
 97
 118
 70
 91
 92
 112
 51
 72
 93
 157
 180
 176
Eabs 1 725 double
 2.73861
 3.4641
 3.82131
 2.75749
 2.73861
 2.14834
 1.73205
 1.43839
 1.60711
 1.57808
 2.31324
 2.75749
 1.05265
 0.872314
 0.679995
 1.05009
 0.699547
 0.686998
 0.876256
 0.889458
 0.696579
 0.709249
 0.789108
 0.495002
 0.608084
 0.768063
 0.550108
 0.67959
 0.535188
 0.747374
 0.630989
 0.675709
 0.595748
 0.59466
 0.725924
 0.803301
 0.737438
 0.639025
 0.704826
 0.693606
 0.920843
 0.846651
 0.64756
 1.05234
 1.07539
 1.09644
 1.09644
 1.07539
 1.05234
 0.64756
 0.846651
 0.920843
 0.693606
 0.704826
 0.639025
 0.737438
 0.803301
 0.725924
 0.59466
 0.595748
 0.675709
 0.630989
 0.747374
 0.569495
 0.595748
 0.675709
 0.630989
 0.747374
 0.634574
 0.66915
 0.704179
 0.803301
 0.725924
 0.716115
 0.759555
 0.803219
 0.845154
 0.877058
 0.932505
 1.0351
 0.64756
 0.64756
 0.66915
 0.937496
 0.759555
 0.704179
 0.786545
 1.03573
 0.877058
 0.803219
 0.738549
 1.22183
 1.1913
 1.0351
 0.932505
 0.845154
 0.770752
 1.65145
 1.43839
 1.25656
 1.29598
 0.760563
 1.05924
 1.87867
 1.58114
 1.3484
 1.16775
 0.761734
 0.889458
 0.846869
 0.772102
 0.725631
 1.21632
 1.00245
 1.03537
 1.37511
 1.77989
 0.600778
 0.72848
 1.13142
 0.874082
 0.979612
 1.13371
 1.38039
 2.21018
 2.49267
 0.627901
 0.986218
 0.872314
 1.30657
 1.44477
 1.69839
 1.38973
 2.25506
 2.871
 3.58276
 0.835269
 0.846651
 0.702313
 1.14463
 0.877749
 0.934314
 1.60711
 1.57808
 2.31324
 2.75749
 3.82131
 0
 0.939336
 0.840168
 0.870603
 0.750052
 1.05234
 0.786545
 0.9719
 1.11109
 2.03806
 2.02158
 2.59932
 3.38282
 3.82131
 3.58276
 0.835269
 0.863618
 0.937496
 0.725565
 1.2401
 1.43835
 1.65717
 1.86847
 1.64425
 2.17433
 2.59932
 2.75749
 2.871
 2.49267
 0.689652
 0.866879
 1.05924
 0.760563
 1.29598
 1.56509
 1.60711
 1.61014
 1.77989
 0.712506
 0.725924
 1.87867
 1.58114
 1.3484
 1.16775
 1.77989
 1.43839
 1.25656
 1.10657
 0.983739
 0.882735
 1.42292
 1.1547
 1.0351
 0.932505
 0.845154
 0.770752
 1.20128
 1.30657
 0.960769
 0.877058
 0.803219
 0.738549
 1.05265
 0.956834
 0.826282
 0.821071
 0.759555
 0.704179
 1.21632
 0.872314
 0.679995
 0.72848
 0.827218
 0.716115
 0.66915
 0.725631
 1.05009
 0.699547
 0.686998
 0.876256
 0.729299
 0.772102
 0.889458
 0.696579
 0.709249
 0.789108
 0.495002
 0.718312
 0.846869
 0.761734
 0.608084
 0.768063
 0.550108
 0.67959
 0.535188
 0.125187
 1.14463
 0.750052
 0.702313
 0.986218
 0.870603
 0.846651
 0.627901
 2.871
 2.25506
 2.21018
 1.38973
 1.38039
 1.69839
 1.13371
 2.59932
 1.64425
 2.02158
 1.86847
 2.03806
 1.65717
 1.11109
 3.4641
 3.58276
 2.58199
 3.16228
 2.58199
 0
 2.871
 3.58276
 3.82131
 2.59932
 3.38282
 1.43835
 1.65717
 1.86847
 1.64425
 1.05924
 0.760563
 1.29598
 1.56509
 1.60711
 1.61014
 0.712506
 0.725924
 0.693606
 1.05234
 1.09644
 1.1913
 1.22183
 0.747374
 0.803301
 0.920843
 1.07539
 1.03573
 0.786545
 0.630989
 0.737438
 0.846651
 0.937496
 0.675709
 0.639025
 0.64756
 0.595748
 0.627901
 0.986218
 0.846651
 0.702313
 1.14463
 0.870603
 0.750052
 0.67959
 0.550108
 0.789108
 0.876256
 0.768063
 0.709249
 0.686998
 0.72848
 0.608084
 0.696579
 0.699547
 0.679995
 0.956834
 1.30657
 0.761734
 0.889458
 1.05009
 0.872314
 1.05265
 1.20128
 1.42292
 0.725631
 1.21632
 1.00245
 1.03537
 1.37511
 1.77989
 0.979612
 1.13371
 1.38039
 2.21018
 0.870603
 0.846651
 0.870603
 0.750052
 0.702313
 0.750052
 1.14463
 1.3484
 1.41421
 1.58114
 1.69031
 1.87867
 2.0702
 2.58199
 1.41421
 1.3484
 1.69031
 1.58114
 2.0702
 1.87867
 2.58199
 0.586934
 0.679027
 0.634574
 0.937496
 0.769413
 1.03573
 1.00096
 1.1913
 1.43839
 0.595748
 0.675709
 0.630989
 0.747374
 0.712506
 0.689652
 0.863618
 0.870603
 0.846651
 0.870603
 0.863618
 0.689652
 0.712506
 0.747374
 0.630989
 0.675709
 0.595748
 0.59466
 0.125104
 0.803301
 0.725924
 0.866879
 0.937496
 0.750052
 0.702313
 0.750052
 0.937496
 0.866879
 0.725924
 0.803301
 0.737438
 0.639025
 0.704826
 0.586934
 0.134805
 1.05924
 0.725565
 1.05234
 1.14463
 1.05234
 0.725565
 1.05924
 0.693606
 0.920843
 0.846651
 0.64756
 0.679027
 0.786545
 0.877749
 0.786545
 1.2401
 0.760563
 1.05234
 1.07539
 0.937496
 0.769413
 0.9719
 1.43835
 1.29598
 1.09644
 1.03573
 1.00096
 0.937496
 1.56509
 1.1913
 0.786545
 1.03573
 1.22183
 1.1913
 1.29598
 0.760563
 1.05924
 1.2401
 0.821071
 1.69031
 1.41421
 1.20972
 1.05409
 0.932505
 1.22474
 1.06399
 1.69031
 1.41421
 1.20972
 1.05409
 0.932505
 0.821071
 0.590299
 0.535188
 0.718312
 0.67959
 0.495002
 0.729299
 0.550108
 0.789108
 0.876256
 0.827218
 0.768063
 0.709249
 0.686998
 0.72848
 0.826282
 0.608084
 0.696579
 0.699547
 0.679995
 0.956834
 1.30657
 1.05009
 0.872314
 1.05265
 1.20128
 1.42292
 0.798935
 1.2401
 0.912871
 2.0702
 1.42292
 1.30657
 2.0702
 1.02598
 0.912871
 1.64425
 2.02158
 2.31324
 2.25506
 2.21018
 0.798935
 0.693606
 1.05234
 1.09644
 1.1913
 1.22183
 1.60711
 1.86847
 2.03806
 1.57808
 1.38973
 1.38039
 1.37511
 0.747374
 0.803301
 0.920843
 1.07539
 1.03573
 0.786545
 1.1913
 1.56509
 1.65717
 1.11109
 1.60711
 1.69839
 1.13371
 1.03537
 0.630989
 0.737438
 0.846651
 0.937496
 1.00096
 1.03573
 1.09644
 1.29598
 1.43835
 0.9719
 0.934314
 1.44477
 0.979612
 1.00245
 0.675709
 0.639025
 0.64756
 0.769413
 0.937496
 1.07539
 1.05234
 0.760563
 1.2401
 0.786545
 0.877749
 1.30657
 0.874082
 0.595748
 0.704826
 0.679027
 0.64756
 0.846651
 0.920843
 0.693606
 1.05924
 0.725565
 1.05234
 1.14463
 0.872314
 1.13142
 0.59466
 0.586934
 0.704826
 0.639025
 0.737438
 0.803301
 0.725924
 0.866879
 0.937496
 0.750052
 0.702313
 0.552376
 0.59466
 0.595748
 0.675709
 0.630989
 0.747374
 0.712506
 0.689652
 0.634574
 0.986218
 0.72848
 0.863618
 0.870603
 0.846651
 0.627901
 0.600778
 1.37511
 1.20128
 0.956834
 0.826282
 0.72848
 0.827218
 0.729299
 0.718312
 0.874082
 1.13142
 0.725631
 0.72848
 0.772102
 0.600778
 0.846869
 0.761734
 1.2401
 1.05924
 0.725565
 0.866879
 0.937496
 0.712506
 0.689652
 0.863618
 1.03537
 0.979612
 1.00245
 1.21632
 1.57808
 1.60711
 0.934314
 1.44477
 0.877749
 1.30657
 0.872314
 2.31324
 1.43835
 0.9719
 0.760563
 0.786545
 1.05234
 1.60711
 1.1913
 1.56509
 1.03573
 1.29598
 2.49267
 2.02158
 2.25506
 0.9719
 1.11109
 2.03806
 1.2401
 2.17433
 1.00096
 0.769413
 0.937496
 0.704826
 0.679027
 0.59466
 0.586934
 0.552376
 0.600778
 0.72848
 0.872314
 1.30657
 1.44477
 1.69839
 1.38973
 0.877749
 0.934314
 1.05234
 0.786545
 0.863618
 0.937496
 0.725565
 0.689652
 0.866879
 0.874082
 0.846869
 0.772102
 1.13142
 0.535188
 0.495002
 0.590299
 0.718312
 0.729299
 0.827218
 0.821071
 0.826282
 0.960769
 1.1547
 1.43839
 0.863618
 0.689652
 0.712506
 0.937496
 0.866879
 0.725565
 1.05924
 1.2401
 0.712506
 0.689652
 0.863618
 0.866879
 0.937496
 1.05924
 0.725565
 1.02598
 1.05234
 0.877749
 0.786545
 0.760563
 1.22474
 0.9719
 1.43835
 1.43839
 1.73205
 1.29598
 1.56509
 0.983739
 1.10657
 1.16775
 1.25656
 1.05234
 0.786545
 1.20972
 2.14834
 2.23607
 2.49267
EdB 1 725 double
 128.751
 130.792
 131.644
 128.81
 128.751
 126.642
 124.771
 123.158
 124.121
 123.963
 127.284
 128.81
 120.446
 118.813
 116.65
 120.424
 116.896
 116.739
 118.853
 118.983
 116.859
 117.016
 117.943
 113.892
 115.679
 117.708
 114.809
 116.645
 114.57
 117.471
 116
 116.595
 115.501
 115.485
 117.218
 118.098
 117.355
 116.11
 116.962
 116.822
 119.284
 118.554
 116.226
 120.443
 120.631
 120.8
 120.8
 120.631
 120.443
 116.226
 118.554
 119.284
 116.822
 116.962
 116.11
 117.355
 118.098
 117.218
 115.485
 115.501
 116.595
 116
 117.471
 115.11
 115.501
 116.595
 116
 117.471
 116.05
 116.51
 116.954
 118.098
 117.218
 117.1
 117.611
 118.097
 118.539
 118.861
 119.393
 120.3
 116.226
 116.226
 116.51
 119.439
 117.611
 116.954
 117.914
 120.305
 118.861
 118.097
 117.368
 121.74
 121.52
 120.3
 119.393
 118.539
 117.738
 124.357
 123.158
 121.984
 122.252
 117.623
 120.5
 125.477
 123.979
 122.596
 121.347
 117.636
 118.983
 118.556
 117.753
 117.214
 121.701
 120.021
 120.302
 122.767
 125.008
 115.574
 117.248
 121.072
 118.831
 119.821
 121.09
 122.8
 126.889
 127.933
 115.958
 119.879
 118.813
 122.323
 123.196
 124.601
 122.859
 127.063
 129.161
 131.084
 118.437
 118.554
 116.931
 121.173
 118.867
 119.41
 124.121
 123.963
 127.284
 128.81
 131.644
 -1
 119.456
 118.487
 118.796
 117.502
 120.443
 117.914
 119.752
 120.915
 126.184
 126.114
 128.297
 130.586
 131.644
 131.084
 118.437
 118.726
 119.439
 117.214
 121.869
 123.157
 124.387
 125.43
 124.319
 126.747
 128.297
 128.81
 129.161
 127.933
 116.773
 118.759
 120.5
 117.623
 122.252
 123.891
 124.121
 124.137
 125.008
 117.056
 117.218
 125.477
 123.979
 122.596
 121.347
 125.008
 123.158
 121.984
 120.88
 119.858
 118.917
 123.064
 121.249
 120.3
 119.393
 118.539
 117.738
 121.593
 122.323
 119.652
 118.861
 118.097
 117.368
 120.446
 119.617
 118.343
 118.288
 117.611
 116.954
 121.701
 118.813
 116.65
 117.248
 118.352
 117.1
 116.51
 117.214
 120.424
 116.896
 116.739
 118.853
 117.258
 117.753
 118.983
 116.859
 117.016
 117.943
 113.892
 117.126
 118.556
 117.636
 115.679
 117.708
 114.809
 116.645
 114.57
 101.951
 121.173
 117.502
 116.931
 119.879
 118.796
 118.554
 115.958
 129.161
 127.063
 126.889
 122.859
 122.8
 124.601
 121.09
 128.297
 124.319
 126.114
 125.43
 126.184
 124.387
 120.915
 130.792
 131.084
 128.239
 130
 128.239
 -1
 129.161
 131.084
 131.644
 128.297
 130.586
 123.157
 124.387
 125.43
 124.319
 120.5
 117.623
 122.252
 123.891
 124.121
 124.137
 117.056
 117.218
 116.822
 120.443
 120.8
 121.52
 121.74
 117.471
 118.098
 119.284
 120.631
 120.305
 117.914
 116
 117.355
 118.554
 119.439
 116.595
 116.11
 116.226
 115.501
 115.958
 119.879
 118.554
 116.931
 121.173
 118.796
 117.502
 116.645
 114.809
 117.943
 118.853
 117.708
 117.016
 116.739
 117.248
 115.679
 116.859
 116.896
 116.65
 119.617
 122.323
 117.636
 118.983
 120.424
 118.813
 120.446
 121.593
 123.064
 117.214
 121.701
 120.021
 120.302
 122.767
 125.008
 119.821
 121.09
 122.8
 126.889
 118.796
 118.554
 118.796
 117.502
 116.931
 117.502
 121.173
 122.596
 123.01
 123.979
 124.559
 125.477
 126.32
 128.239
 123.01
 122.596
 124.559
 123.979
 126.32
 125.477
 128.239
 115.372
 116.638
 116.05
 119.439
 117.723
 120.305
 120.008
 121.52
 123.158
 115.501
 116.595
 116
 117.471
 117.056
 116.773
 118.726
 118.796
 118.554
 118.796
 118.726
 116.773
 117.056
 117.471
 116
 116.595
 115.501
 115.485
 101.945
 118.098
 117.218
 118.759
 119.439
 117.502
 116.931
 117.502
 119.439
 118.759
 117.218
 118.098
 117.355
 116.11
 116.962
 115.372
 102.594
 120.5
 117.214
 120.443
 121.173
 120.443
 117.214
 120.5
 116.822
 119.284
 118.554
 116.226
 116.638
 117.914
 118.867
 117.914
 121.869
 117.623
 120.443
 120.631
 119.439
 117.723
 119.752
 123.157
 122.252
 120.8
 120.305
 120.008
 119.439
 123.891
 121.52
 117.914
 120.305
 121.74
 121.52
 122.252
 117.623
 120.5
 121.869
 118.288
 124.559
 123.01
 121.654
 120.458
 119.393
 121.761
 120.539
 124.559
 123.01
 121.654
 120.458
 119.393
 118.288
 115.421
 114.57
 117.126
 116.645
 113.892
 117.258
 114.809
 117.943
 118.853
 118.352
 117.708
 117.016
 116.739
 117.248
 118.343
 115.679
 116.859
 116.896
 116.65
 119.617
 122.323
 120.424
 118.813
 120.446
 121.593
 123.064
 118.05
 121.869
 119.208
 126.32
 123.064
 122.323
 126.32
 120.223
 119.208
 124.319
 126.114
 127.284
 127.063
 126.889
 118.05
 116.822
 120.443
 120.8
 121.52
 121.74
 124.121
 125.43
 126.184
 123.963
 122.859
 122.8
 122.767
 117.471
 118.098
 119.284
 120.631
 120.305
 117.914
 121.52
 123.891
 124.387
 120.915
 124.121
 124.601
 121.09
 120.302
 116
 117.355
 118.554
 119.439
 120.008
 120.305
 120.8
 122.252
 123.157
 119.752
 119.41
 123.196
 119.821
 120.021
 116.595
 116.11
 116.226
 117.723
 119.439
 120.631
 120.443
 117.623
 121.869
 117.914
 118.867
 122.323
 118.831
 115.501
 116.962
 116.638
 116.226
 118.554
 119.284
 116.822
 120.5
 117.214
 120.443
 121.173
 118.813
 121.072
 115.485
 115.372
 116.962
 116.11
 117.355
 118.098
 117.218
 118.759
 119.439
 117.502
 116.931
 114.845
 115.485
 115.501
 116.595
 116
 117.471
 117.056
 116.773
 116.05
 119.879
 117.248
 118.726
 118.796
 118.554
 115.958
 115.574
 122.767
 121.593
 119.617
 118.343
 117.248
 118.352
 117.258
 117.126
 118.831
 121.072
 117.214
 117.248
 117.753
 115.574
 118.556
 117.636
 121.869
 120.5
 117.214
 118.759
 119.439
 117.056
 116.773
 118.726
 120.302
 119.821
 120.021
 121.701
 123.963
 124.121
 119.41
 123.196
 118.867
 122.323
 118.813
 127.284
 123.157
 119.752
 117.623
 117.914
 120.443
 124.121
 121.52
 123.891
 120.305
 122.252
 127.933
 126.114
 127.063
 119.752
 120.915
 126.184
 121.869
 126.747
 120.008
 117.723
 119.439
 116.962
 116.638
 115.485
 115.372
 114.845
 115.574
 117.248
 118.813
 122.323
 123.196
 124.601
 122.859
 118.867
 119.41
 120.443
 117.914
 118.726
 119.439
 117.214
 116.773
 118.759
 118.831
 118.556
 117.753
 121.072
 114.57
 113.892
 115.421
 117.126
 117.258
 118.352
 118.288
 118.343
 119.652
 121.249
 123.158
 118.726
 116.773
 117.056
 119.439
 118.759
 117.214
 120.5
 121.869
 117.056
 116.773
 118.726
 118.759
 119.439
 120.5
 117.214
 120.223
 120.443
 118.867
 117.914
 117.623
 121.761
 119.752
 123.157
 123.158
 124.771
 122.252
 123.891
 119.858
 120.88
 121.347
 121.984
 120.443
 117.914
 121.654
 126.642
 126.99
 127.933
Phase 1 725 double
 -2.91931
 -2.20786
 -0.839068
 -2.19131
 -5.94976
 0.346504
 -3.48198
 -0.000451288
 -4.00634
 1.20506
 6.46798
 0.952071
 -3.91365
 -5.14059
 5.94697
 5.63255
 -5.75117
 3.25015
 -4.91686
 0.615127
 5.53133
 6.59734
 2.46563
 1.20079
 1.29997
 6.13147
 -0.0726094
 -2.16684
 -1.22282