# vtk DataFile Version 2.0
Ray Path Visualization
ASCII
DATASET POLYDATA

POINTS 538 float
 0 0 5
 0 0 3
 0 0 5
 0 1 3
 0 0 5
 0 2 3
 0 0 5
 0 3 3
 0 0 5
 0 4 3
 0 0 5
 0 5 3
 0 0 5
 0 6 3
 0 0 5
 0 7 3
 0 0 5
 0 5 0
 0 8 3
 0 0 5
 0 5.625 0
 0 9 3
 0 0 5
 0 6.25 0
 0 10 3
 0 0 5
 0 6.875 0
 0 11 3
 0 0 5
 0 7.5 0
 0 12 3
 0 0 5
 0 8.125 0
 0 13 3
 0 0 5
 0 8.75 0
 0 14 3
 0 0 5
 0 9.375 0
 0 15 3
 0 0 5
 0 10 0
 0 16 3
 0 0 5
 0 10.625 0
 0 17 3
 0 0 5
 0 11.25 0
 0 18 3
 0 0 5
 0 11.875 0
 0 19 3
 0 0 5
 0 12.5 0
 0 20 3
 0 0 5
 0 13.125 0
 0 21 3
 0 0 5
 0 13.75 0
 0 22 3
 0 0 5
 0 14.375 0
 0 23 3
 0 0 5
 0 15 0
 0 24 3
 0 0 5
 0 15.625 0
 0 25 3
 0 0 5
 0 16.25 0
 0 26 3
 0 0 5
 0 16.875 0
 0 27 3
 0 0 5
 0 17.5 0
 0 28 3
 0 0 5
 0 18.125 0
 0 29 3
 0 0 5
 0 18.75 0
 0 30 3
 0 0 5
 0 19.375 0
 0 31 3
 0 0 5
 0 20 0
 0 32 3
 0 0 5
 0 20.625 0
 0 33 3
 0 0 5
 0 21.25 0
 0 34 3
 0 0 5
 0 21.875 0
 0 35 3
 0 0 5
 0 22.5 0
 0 36 3
 0 0 5
 0 23.125 0
 0 37 3
 0 0 5
 0 23.75 0
 0 38 3
 0 0 5
 0 24.375 0
 0 39 3
 0 0 5
 0 25 0
 0 40 3
 0 0 5
 0 25.625 0
 0 41 3
 0 0 5
 0 26.25 0
 0 42 3
 0 0 5
 0 26.875 0
 0 43 3
 0 0 5
 0 27.5 0
 0 44 3
 0 0 5
 0 28.125 0
 0 45 3
 0 0 5
 0 28.75 0
 0 46 3
 0 0 5
 0 29.375 0
 0 47 3
 0 0 5
 0 8 3
 0 0 5
 0 9 3
 0 0 5
 0 10 3
 0 0 5
 0 11 3
 0 0 5
 0 12 3
 0 0 5
 0 13 3
 0 0 5
 0 14 3
 0 0 5
 0 15 3
 0 0 5
 0 16 3
 0 0 5
 0 17 3
 0 0 5
 0 18 3
 0 0 5
 0 19 3
 0 0 5
 0 20 3
 0 0 5
 0 21 3
 0 0 5
 0 22 3
 0 0 5
 0 23 3
 0 0 5
 0 24 3
 0 0 5
 0 25 3
 0 0 5
 0 26 3
 0 0 5
 0 27 3
 0 0 5
 0 28 3
 0 0 5
 0 29 3
 0 0 5
 0 30 3
 0 0 5
 0 31 3
 0 0 5
 0 32 3
 0 0 5
 0 33 3
 0 0 5
 0 34 3
 0 0 5
 0 35 3
 0 0 5
 0 36 3
 0 0 5
 0 37 3
 0 0 5
 0 38 3
 0 0 5
 0 39 3
 0 0 5
 0 40 3
 0 0 5
 0 41 3
 0 0 5
 0 42 3
 0 0 5
 0 43 3
 0 0 5
 0 44 3
 0 0 5
 0 45 3
 0 0 5
 0 46 3
 0 0 5
 0 47 3
 0 0 5
 0 48 3
 0 0 5
 0 49 3
 0 0 5
 0 50 3
 0 0 5
 0 51 3
 0 0 5
 0 52 3
 0 0 5
 0 53 3
 0 0 5
 0 54 3
 0 0 5
 0 55 3
 0 0 5
 0 56 3
 0 0 5
 0 57 3
 0 0 5
 0 58 3
 0 0 5
 0 59 3
 0 0 5
 0 60 3
 0 0 5
 0 61 3
 0 0 5
 0 62 3
 0 0 5
 0 63 3
 0 0 5
 0 64 3
 0 0 5
 0 65 3
 0 0 5
 0 66 3
 0 0 5
 0 67 3
 0 0 5
 0 68 3
 0 0 5
 0 69 3
 0 0 5
 0 70 3
 0 0 5
 0 71 3
 0 0 5
 0 72 3
 0 0 5
 0 73 3
 0 0 5
 0 74 3
 0 0 5
 0 75 3
 0 0 5
 0 76 3
 0 0 5
 0 77 3
 0 0 5
 0 78 3
 0 0 5
 0 79 3
 0 0 5
 0 80 3
 0 0 5
 0 81 3
 0 0 5
 0 82 3
 0 0 5
 0 83 3
 0 0 5
 0 84 3
 0 0 5
 0 85 3
 0 0 5
 0 86 3
 0 0 5
 0 87 3
 0 0 5
 0 88 3
 0 0 5
 0 89 3
 0 0 5
 0 90 3
 0 0 5
 0 91 3
 0 0 5
 0 92 3
 0 0 5
 0 93 3
 0 0 5
 0 94 3
 0 0 5
 0 95 3
 0 0 5
 0 96 3
 0 0 5
 0 97 3
 0 0 5
 0 98 3
 0 0 5
 0 99 3
 0 0 5
 0 100 3
 0 0 5
 0 101 3
 0 0 5
 0 102 3
 0 0 5
 0 103 3
 0 0 5
 0 104 3
 0 0 5
 0 105 3
 0 0 5
 0 106 3
 0 0 5
 0 107 3
 0 0 5
 0 108 3
 0 0 5
 0 109 3
 0 0 5
 0 110 3
 0 0 5
 0 111 3
 0 0 5
 0 112 3
 0 0 5
 0 113 3
 0 0 5
 0 114 3
 0 0 5
 0 115 3
 0 0 5
 0 116 3
 0 0 5
 0 117 3
 0 0 5
 0 118 3
 0 0 5
 0 119 3
 0 0 5
 0 120 3
 0 0 5
 0 121 3
 0 0 5
 0 122 3
 0 0 5
 0 123 3
 0 0 5
 0 124 3
 0 0 5
 0 125 3
 0 0 5
 0 126 3
 0 0 5
 0 127 3
 0 0 5
 0 128 3
 0 0 5
 0 129 3
 0 0 5
 0 130 3
 0 0 5
 0 131 3
 0 0 5
 0 132 3
 0 0 5
 0 133 3
 0 0 5
 0 134 3
 0 0 5
 0 135 3
 0 0 5
 0 136 3
 0 0 5
 0 137 3
 0 0 5
 0 138 3
 0 0 5
 0 139 3
 0 0 5
 0 140 3
 0 0 5
 0 141 3
 0 0 5
 0 142 3
 0 0 5
 0 143 3
 0 0 5
 0 144 3
 0 0 5
 0 145 3
 0 0 5
 0 146 3
 0 0 5
 0 147 3
 0 0 5
 0 148 3
 0 0 5
 0 149 3
 0 0 5
 0 150 3
 0 0 5
 0 151 3
 0 0 5
 0 152 3
 0 0 5
 0 153 3
 0 0 5
 0 154 3
 0 0 5
 0 155 3
 0 0 5
 0 156 3
 0 0 5
 0 157 3
 0 0 5
 0 158 3
 0 0 5
 0 159 3
 0 0 5
 0 160 3
 0 0 5
 0 161 3
 0 0 5
 0 162 3
 0 0 5
 0 163 3
 0 0 5
 0 164 3
 0 0 5
 0 165 3
 0 0 5
 0 166 3
 0 0 5
 0 167 3
 0 0 5
 0 168 3
 0 0 5
 0 169 3
 0 0 5
 0 170 3
 0 0 5
 0 171 3
 0 0 5
 0 172 3
 0 0 5
 0 173 3
 0 0 5
 0 174 3
 0 0 5
 0 175 3
 0 0 5
 0 176 3
 0 0 5
 0 177 3
 0 0 5
 0 178 3
 0 0 5
 0 179 3
 0 0 5
 0 180 3
 0 0 5
 0 181 3
 0 0 5
 0 182 3
 0 0 5
 0 183 3
 0 0 5
 0 184 3
 0 0 5
 0 185 3
 0 0 5
 0 186 3
 0 0 5
 0 187 3
 0 0 5
 0 188 3
 0 0 5
 0 189 3
 0 0 5
 0 190 3
 0 0 5
 0 191 3
 0 0 5
 0 192 3
 0 0 5
 0 193 3
 0 0 5
 0 194 3
 0 0 5
 0 195 3
 0 0 5
 0 196 3
 0 0 5
 0 197 3
 0 0 5
 0 198 3
 0 0 5
 0 199 3
 0 0 5
 0 1.875 0
 0 3 3
 0 0 5
 0 2.5 0
 0 4 3
 0 0 5
 0 3.125 0
 0 5 3
 0 0 5
 0 3.75 0
 0 6 3
 0 0 5
 0 4.375 0
 0 7 3
 0 0 5
 0 1.25 0
 0 2 3
LINES 246 784
 2 0 1 
 2 2 3 
 2 4 5 
 2 6 7 
 2 8 9 
 2 10 11 
 2 12 13 
 2 14 15 
 3 16 17 18 
 3 19 20 21 
 3 22 23 24 
 3 25 26 27 
 3 28 29 30 
 3 31 32 33 
 3 34 35 36 
 3 37 38 39 
 3 40 41 42 
 3 43 44 45 
 3 46 47 48 
 3 49 50 51 
 3 52 53 54 
 3 55 56 57 
 3 58 59 60 
 3 61 62 63 
 3 64 65 66 
 3 67 68 69 
 3 70 71 72 
 3 73 74 75 
 3 76 77 78 
 3 79 80 81 
 3 82 83 84 
 3 85 86 87 
 3 88 89 90 
 3 91 92 93 
 3 94 95 96 
 3 97 98 99 
 3 100 101 102 
 3 103 104 105 
 3 106 107 108 
 3 109 110 111 
 3 112 113 114 
 3 115 116 117 
 3 118 119 120 
 3 121 122 123 
 3 124 125 126 
 3 127 128 129 
 3 130 131 132 
 3 133 134 135 
 2 136 137 
 2 138 139 
 2 140 141 
 2 142 143 
 2 144 145 
 2 146 147 
 2 148 149 
 2 150 151 
 2 152 153 
 2 154 155 
 2 156 157 
 2 158 159 
 2 160 161 
 2 162 163 
 2 164 165 
 2 166 167 
 2 168 169 
 2 170 171 
 2 172 173 
 2 174 175 
 2 176 177 
 2 178 179 
 2 180 181 
 2 182 183 
 2 184 185 
 2 186 187 
 2 188 189 
 2 190 191 
 2 192 193 
 2 194 195 
 2 196 197 
 2 198 199 
 2 200 201 
 2 202 203 
 2 204 205 
 2 206 207 
 2 208 209 
 2 210 211 
 2 212 213 
 2 214 215 
 2 216 217 
 2 218 219 
 2 220 221 
 2 222 223 
 2 224 225 
 2 226 227 
 2 228 229 
 2 230 231 
 2 232 233 
 2 234 235 
 2 236 237 
 2 238 239 
 2 240 241 
 2 242 243 
 2 244 245 
 2 246 247 
 2 248 249 
 2 250 251 
 2 252 253 
 2 254 255 
 2 256 257 
 2 258 259 
 2 260 261 
 2 262 263 
 2 264 265 
 2 266 267 
 2 268 269 
 2 270 271 
 2 272 273 
 2 274 275 
 2 276 277 
 2 278 279 
 2 280 281 
 2 282 283 
 2 284 285 
 2 286 287 
 2 288 289 
 2 290 291 
 2 292 293 
 2 294 295 
 2 296 297 
 2 298 299 
 2 300 301 
 2 302 303 
 2 304 305 
 2 306 307 
 2 308 309 
 2 310 311 
 2 312 313 
 2 314 315 
 2 316 317 
 2 318 319 
 2 320 321 
 2 322 323 
 2 324 325 
 2 326 327 
 2 328 329 
 2 330 331 
 2 332 333 
 2 334 335 
 2 336 337 
 2 338 339 
 2 340 341 
 2 342 343 
 2 344 345 
 2 346 347 
 2 348 349 
 2 350 351 
 2 352 353 
 2 354 355 
 2 356 357 
 2 358 359 
 2 360 361 
 2 362 363 
 2 364 365 
 2 366 367 
 2 368 369 
 2 370 371 
 2 372 373 
 2 374 375 
 2 376 377 
 2 378 379 
 2 380 381 
 2 382 383 
 2 384 385 
 2 386 387 
 2 388 389 
 2 390 391 
 2 392 393 
 2 394 395 
 2 396 397 
 2 398 399 
 2 400 401 
 2 402 403 
 2 404 405 
 2 406 407 
 2 408 409 
 2 410 411 
 2 412 413 
 2 414 415 
 2 416 417 
 2 418 419 
 2 420 421 
 2 422 423 
 2 424 425 
 2 426 427 
 2 428 429 
 2 430 431 
 2 432 433 
 2 434 435 
 2 436 437 
 2 438 439 
 2 440 441 
 2 442 443 
 2 444 445 
 2 446 447 
 2 448 449 
 2 450 451 
 2 452 453 
 2 454 455 
 2 456 457 
 2 458 459 
 2 460 461 
 2 462 463 
 2 464 465 
 2 466 467 
 2 468 469 
 2 470 471 
 2 472 473 
 2 474 475 
 2 476 477 
 2 478 479 
 2 480 481 
 2 482 483 
 2 484 485 
 2 486 487 
 2 488 489 
 2 490 491 
 2 492 493 
 2 494 495 
 2 496 497 
 2 498 499 
 2 500 501 
 2 502 503 
 2 504 505 
 2 506 507 
 2 508 509 
 2 510 511 
 2 512 513 
 2 514 515 
 2 516 517 
 2 518 519 
 3 520 521 522 
 3 523 524 525 
 3 526 527 528 
 3 529 530 531 
 3 532 533 534 
 3 535 536 537 
CELL_DATA 246
FIELD FieldData 5
LaunchID 1 246 int
 2
 5
 5
 5
 5
 5
 5
 5
 5
 5
 5
 5
 5
 5
 5
 5
 5
 5
 5
 5
 5
 5
 5
 5
 5
 5
 5
 5
 5
 5
 5
 5
 5
 5
 5
 5
 5
 5
 5
 5
 5
 5
 5
 5
 5
 5
 5
 5
 18
 18
 18
 18
 18
 18
 18
 18
 18
 18
 18
 18
 18
 18
 18
 18
 18
 18
 18
 18
 18
 18
 18
 18
 18
 18
 18
 18
 18
 18
 18
 18
 18
 18
 18
 18
 18
 18
 18
 18
 18
 18
 18
 18
 18
 18
 18
 18
 18
 18
 18
 18
 18
 18
 18
 18
 18
 18
 18
 18
 18
 18
 18
 18
 18
 18
 18
 18
 18
 18
 18
 18
 18
 18
 18
 18
 18
 18
 18
 18
 18
 18
 18
 18
 18
 18
 18
 18
 18
 18
 18
 18
 18
 18
 18
 18
 18
 18
 18
 18
 18
 18
 18
 18
 18
 18
 18
 18
 18
 18
 18
 18
 18
 18
 18
 18
 18
 18
 18
 18
 18
 18
 18
 18
 18
 18
 18
 18
 18
 18
 18
 18
 18
 18
 18
 18
 18
 18
 18
 18
 18
 18
 18
 18
 18
 18
 18
 18
 18
 18
 18
 18
 18
 18
 18
 18
 18
 18
 18
 18
 18
 18
 18
 18
 18
 18
 18
 18
 18
 18
 18
 18
 18
 18
 18
 18
 18
 18
 18
 18
 18
 18
 18
 18
 18
 18
 18
 18
 18
 18
 18
 18
 26
 26
 26
 26
 26
 28
ReceiverID 1 246 int
 0
 1
 2
 3
 4
 5
 6
 7
 8
 9
 10
 11
 12
 13
 14
 15
 16
 17
 18
 19
 20
 21
 22
 23
 24
 25
 26
 27
 28
 29
 30
 31
 32
 33
 34
 35
 36
 37
 38
 39
 40
 41
 42
 43
 44
 45
 46
 47
 8
 9
 10
 11
 12
 13
 14
 15
 16
 17
 18
 19
 20
 21
 22
 23
 24
 25
 26
 27
 28
 29
 30
 31
 32
 33
 34
 35
 36
 37
 38
 39
 40
 41
 42
 43
 44
 45
 46
 47
 48
 49
 50
 51
 52
 53
 54
 55
 56
 57
 58
 59
 60
 61
 62
 63
 64
 65
 66
 67
 68
 69
 70
 71
 72
 73
 74
 75
 76
 77
 78
 79
 80
 81
 82
 83
 84
 85
 86
 87
 88
 89
 90
 91
 92
 93
 94
 95
 96
 97
 98
 99
 100
 101
 102
 103
 104
 105
 106
 107
 108
 109
 110
 111
 112
 113
 114
 115
 116
 117
 118
 119
 120
 121
 122
 123
 124
 125
 126
 127
 128
 129
 130
 131
 132
 133
 134
 135
 136
 137
 138
 139
 140
 141
 142
 143
 144
 145
 146
 147
 148
 149
 150
 151
 152
 153
 154
 155
 156
 157
 158
 159
 160
 161
 162
 163
 164
 165
 166
 167
 168
 169
 170
 171
 172
 173
 174
 175
 176
 177
 178
 179
 180
 181
 182
 183
 184
 185
 186
 187
 188
 189
 190
 191
 192
 193
 194
 195
 196
 197
 198
 199
 3
 4
 5
 6
 7
 2
Eabs 1 246 double
 0
 1.89737
 2.3832
 2.14432
 2.01489
 1.56697
 1.64702
 1.43185
 0.96104
 1.15859
 0.868996
 0.769085
 0.731184
 0.712827
 0.691453
 0.634556
 0.599731
 0.546682
 0.547707
 0.480288
 0.491254
 0.457212
 0.407508
 0.438066
 0.405365
 0.350745
 0.364311
 0.38011
 0.348626
 0.304557
 0.295708
 0.313279
 0.320828
 0.305151
 0.275853
 0.251114
 0.243188
 0.249316
 0.258189
 0.261137
 0.25538
 0.24248
 0.226243
 0.210992
 0.200118
 0.194986
 0.19475
 0.197243
 0.96104
 1.15859
 0.868996
 0.769085
 0.731184
 0.712827
 0.691453
 0.634556
 0.599731
 0.546682
 0.547707
 0.480288
 0.491254
 0.457212
 0.407508
 0.438066
 0.405365
 0.350745
 0.364311
 0.38011
 0.348626
 0.304557
 0.295708
 0.313279
 0.320828
 0.305151
 0.275853
 0.251114
 0.243188
 0.249316
 0.258189
 0.261137
 0.25538
 0.24248
 0.226243
 0.210992
 0.200118
 0.194986
 0.19475
 0.197243
 0.1973
 0.193287
 0.189434
 0.185731
 0.18217
 0.178742
 0.175441
 0.17226
 0.169192
 0.166231
 0.163372
 0.160609
 0.157938
 0.155355
 0.152854
 0.150433
 0.148087
 0.145813
 0.143608
 0.141468
 0.139392
 0.137375
 0.135416
 0.133511
 0.13166
 0.129859
 0.128107
 0.126401
 0.12474
 0.123123
 0.121546
 0.12001
 0.118511
 0.11705
 0.115624
 0.114233
 0.112875
 0.111548
 0.110252
 0.108986
 0.107749
 0.10654
 0.105357
 0.104201
 0.103069
 0.101962
 0.100878
 0.0998172
 0.0987783
 0.0977608
 0.0967641
 0.0957875
 0.0948304
 0.0938922
 0.0929724
 0.0920705
 0.0911858
 0.090318
 0.0894666
 0.088631
 0.0878109
 0.0870059
 0.0862154
 0.0854392
 0.0846769
 0.083928
 0.0831922
 0.0824693
 0.0817587
 0.0810604
 0.0803738
 0.0796988
 0.079035
 0.0783822
 0.07774
 0.0771083
 0.0764868
 0.0758752
 0.0752734
 0.074681
 0.0740978
 0.0735237
 0.0729584
 0.0724017
 0.0718535
 0.0713134
 0.0707815
 0.0702574
 0.069741
 0.0692322
 0.0687307
 0.0682365
 0.0677493
 0.067269
 0.0667954
 0.0663285
 0.0658681
 0.065414
 0.0649661
 0.0645243
 0.0640885
 0.0636586
 0.0632343
 0.0628157
 0.0624026
 0.0619949
 0.0615924
 0.0611952
 0.060803
 0.0604159
 0.0600336
 0.0596562
 0.0592834
 0.0589153
 0.0585518
 0.0581927
 0.0578379
 0.0574875
 0.0571413
 0.0567992
 0.0564612
 0.0561272
 0.0557972
 0.055471
 0.0551485
 0.0548299
 0.0545148
 0.0542034
 0.0538955
 0.0535911
 0.0532901
 0.0529925
 0.0526981
 0.052407
 0.0521192
 0.0518344
 0.0515528
 0.0512742
 0.0509986
 0.0507259
 0.0504562
 0.0501893
 0.0499252
 0.0496638
 0.0494052
 0.0491493
 0.048896
 0.0486453
 0.0483972
 0.0481515
 0.0479084
 0.0476677
 2.14432
 2.01489
 1.56697
 1.64702
 1.43185
 2.3832
EdB 1 246 double
 -300
 125.563
 127.543
 126.626
 126.085
 123.901
 124.334
 123.118
 119.655
 121.279
 118.78
 117.719
 117.281
 117.06
 116.795
 116.049
 115.559
 114.755
 114.771
 113.63
 113.826
 113.202
 112.203
 112.831
 112.157
 110.9
 111.229
 111.598
 110.847
 109.673
 109.417
 109.919
 110.125
 109.69
 108.814
 107.997
 107.719
 107.935
 108.239
 108.337
 108.144
 107.694
 107.092
 106.485
 106.026
 105.8
 105.79
 105.9
 119.655
 121.279
 118.78
 117.719
 117.281
 117.06
 116.795
 116.049
 115.559
 114.755
 114.771
 113.63
 113.826
 113.202
 112.203
 112.831
 112.157
 110.9
 111.229
 111.598
 110.847
 109.673
 109.417
 109.919
 110.125
 109.69
 108.814
 107.997
 107.719
 107.935
 108.239
 108.337
 108.144
 107.694
 107.092
 106.485
 106.026
 105.8
 105.79
 105.9
 105.903
 105.724
 105.549
 105.378
 105.21
 105.045
 104.883
 104.724
 104.568
 104.414
 104.264
 104.115
 103.97
 103.826
 103.686
 103.547
 103.41
 103.276
 103.144
 103.013
 102.885
 102.758
 102.633
 102.51
 102.389
 102.269
 102.151
 102.035
 101.92
 101.807
 101.695
 101.584
 101.475
 101.367
 101.261
 101.156
 101.052
 100.949
 100.848
 100.747
 100.648
 100.55
 100.453
 100.357
 100.263
 100.169
 100.076
 99.9841
 99.8932
 99.8033
 99.7143
 99.6262
 99.539
 99.4526
 99.3671
 99.2824
 99.1985
 99.1155
 99.0332
 98.9517
 98.871
 98.791
 98.7117
 98.6331
 98.5553
 98.4781
 98.4017
 98.3258
 98.2507
 98.1762
 98.1023
 98.029
 97.9564
 97.8843
 97.8129
 97.742
 97.6717
 97.602
 97.5328
 97.4642
 97.3961
 97.3285
 97.2615
 97.195
 97.129
 97.0634
 96.9984
 96.9338
 96.8698
 96.8062
 96.743
 96.6803
 96.6181
 96.5563
 96.4949
 96.434
 96.3735
 96.3134
 96.2537
 96.1945
 96.1356
 96.0771
 96.0191
 95.9614
 95.904
 95.8471
 95.7905
 95.7343
 95.6785
 95.623
 95.5679
 95.5131
 95.4587
 95.4046
 95.3508
 95.2974
 95.2443
 95.1915
 95.139
 95.0868
 95.035
 94.9835
 94.9322
 94.8813
 94.8307
 94.7803
 94.7303
 94.6805
 94.6311
 94.5819
 94.5329
 94.4843
 94.4359
 94.3878
 94.3399
 94.2924
 94.245
 94.198
 94.1512
 94.1046
 94.0583
 94.0122
 93.9664
 93.9208
 93.8755
 93.8303
 93.7855
 93.7408
 93.6964
 93.6522
 93.6082
 93.5645
 126.626
 126.085
 123.901
 124.334
 123.118
 127.543
Phase 1 246 double
 0
 -3.31179
 5.01401
 -7.69208
 7.24888
 -1.55317
 5.10532
 -9.10781
 -6.07331
 -1.62782
 2.7648
 0.485118
 -4.13618
 1.72906
 7.16291
 5.60432
 -0.237564
 8.69611
 -3.72454
 3.35766
 -4.90553
 2.57323
 -6.63354
 -2.85324
 3.43471
 -6.42537
 -4.07156
 -0.185233
 -1.79161
 -6.02839
 -4.38918
 -2.65111
 0.112215
 -1.75301
 -6.28958
 -5.03868
 -3.96155
 -2.90445
 -1.75126
 -0.198229
 4.10011
 -6.76642
 -5.75405
 -4.95392
 -4.26489
 -3.63886
 -3.04217
 -2.45265
 -6.07331
 -1.62782
 2.7648
 0.485118
 -4.13618
 1.72906
 7.16291
 5.60432
 -0.237564
 8.69611
 -3.72454
 3.35766
 -4.90553
 2.57323
 -6.63354
 -2.85324
 3.43471
 -6.42537
 -4.07156
 -0.185233
 -1.79161
 -6.02839
 -4.38918
 -2.65111
 0.112215
 -1.75301
 -6.28958
 -5.03868
 -3.96155
 -2.90445
 -1.75126
 -0.198229
 4.10011
 -6.76642
 -5.75405
 -4.95392
 -4.26489
 -3.63886
 -3.04217
 -2.45265
 -3.75941
 -3.74159
 -3.72761
 -3.71724
 -3.71029
 -3.70654
 -3.70583
 -3.70799
 -3.71287
 -3.72032
 -3.73021
 -3.74242
 -3.75682
 -3.77333
 -3.79182
 -3.81221
 -3.83441
 -3.85833
 -3.8839
 -3.91104
 -3.93969
 -3.96978
 -4.00124
 -4.03402
 -4.06806
 -4.10331
 -4.13973
 -4.17727
 -4.21587
 -4.25551
 -4.29613
 -4.33771
 -4.38021
 -4.42359
 -4.46783
 -4.51288
 -4.55872
 -4.60533
 -4.65267
 -4.70073
 -4.74947
 -4.79888
 -4.84892
 -4.89959
 -4.95086
 -5.00271
 -5.05512
 -5.10808
 -5.16156
 -5.21556
 -5.27005
 -5.32502
 -5.38046
 -5.43635
 -5.49268
 -5.54944
 -5.60661
 -5.66419
 -5.72215
 -5.78049
 -5.83921
 -5.89828
 -5.9577
 -6.01746
 -6.07756
 -6.13797
 -6.1987
 -6.25973
 -6.32107
 -6.38269
 -6.44459
 -6.50677
 -6.56922
 -6.63193
 -6.69489
 -6.75811
 -6.82157
 -6.88526
 -6.94919
 -7.01334
 -7.07772
 -7.14231
 -7.20711
 -7.27211
 -7.33732
 -7.40273
 -7.46832
 -7.53411
 -7.60008
 -7.66623
 -7.73255
 -7.79905
 -7.86572
 -7.93255
 -7.99954
 -8.06669
 -8.13399
 -8.20145
 -8.26906
 -8.33681
 -8.4047
 -8.47273
 -8.5409
 -8.6092
 -8.67764
 -8.7462
 -8.81489
 -8.88371
 -8.95264
 -9.0217
 -9.09087
 -9.16016
 -9.22956
 -9.29907
 -9.36868
 9.41115
 9.34132
 9.27139
 9.20135
 9.13122
 9.06099
 8.99067
 8.92025
 8.84974
 8.77914
 8.70845
 8.63767
 8.56681
 8.49586
 8.42483
 8.35372
 8.28253
 8.21126
 8.13991
 8.06848
 7.99698
 7.92541
 7.85376
 7.78205
 7.71026
 7.6384
 7.56647
 7.49448
 7.42242
 7.3503
 7.27811
 7.20586
 7.13355
 7.06117
 6.98874
 6.91625
 6.84369
 -7.69208
 7.24888
 -1.55317
 5.10532
 -9.10781
 5.01401
