# vtk DataFile Version 2.0
Ray Path Visualization
ASCII
DATASET POLYDATA

POINTS 1296 float
 0 0 5
 -3.09017 0 0
 -5.51246 0 -3.91935
 0 0 5
 -3.09017 0 0
 -5.23607 0 -3.47214
 0 0 5
 -3.09017 0 0
 -5.23607 0 -3.47214
 0 0 5
 -3.09017 0 0
 -5.23607 0 -3.47214
 0 0 5
 -3.09017 0 0
 -4.95967 0 -3.02492
 0 0 5
 -3.09017 0 0
 -4.95967 0 -3.02492
 0 0 5
 -3.09017 0 0
 -4.95967 0 -3.02492
 0 0 5
 -3.09017 0 0
 -4.68328 0 -2.57771
 0 0 5
 -3.09017 0 0
 -4.68328 0 -2.57771
 0 0 5
 -3.09017 0 0
 -4.68328 0 -2.57771
 0 0 5
 3.09017 0 0
 4.68328 0 -2.57771
 0 0 5
 3.09017 0 0
 4.68328 0 -2.57771
 0 0 5
 3.09017 0 0
 4.68328 0 -2.57771
 0 0 5
 3.09017 0 0
 4.95967 0 -3.02492
 0 0 5
 3.09017 0 0
 4.95967 0 -3.02492
 0 0 5
 3.09017 0 0
 4.95967 0 -3.02492
 0 0 5
 3.09017 0 0
 5.23607 0 -3.47214
 0 0 5
 3.09017 0 0
 5.23607 0 -3.47214
 0 0 5
 3.09017 0 0
 5.23607 0 -3.47214
 0 0 5
 3.09017 0 0
 5.51246 0 -3.91935
 0 0 5
 0 -8.09017 0
 0 -10.8138 -1.68328
 0 0 5
 8.09017 3.09017 0
 10.1266 3.86803 -1.25861
 0 0 5
 8.09017 -3.09017 0
 10.1266 -3.86803 -1.25861
 0 0 5
 1.90983 3.09017 0
 2.80902 4.54508 -2.3541
 0 0 5
 1.90983 3.09017 0
 2.96353 4.79508 -2.75861
 0 0 5
 1.90983 3.09017 0
 3.11803 5.04508 -3.16312
 0 0 5
 1.90983 3.09017 0
 2.75 4.44959 -2.19959
 0 0 5
 1.90983 3.09017 0
 2.90451 4.69959 -2.6041
 0 0 5
 1.90983 3.09017 0
 3.05902 4.94959 -3.00861
 0 0 5
 1.90983 3.09017 0
 3.21353 5.19959 -3.41312
 0 0 5
 1.90983 3.09017 0
 3 4.8541 -2.8541
 0 0 5
 1.90983 3.09017 0
 3.15451 5.1041 -3.25861
 0 0 5
 1.90983 3.09017 0
 3.30902 5.3541 -3.66312
 0 0 5
 1.90983 3.09017 0
 3.25 5.25861 -3.50861
 0 0 5
 1.90983 3.09017 0
 3.40451 5.50861 -3.91312
 0 0 5
 -1.90983 3.09017 0
 -3.40451 5.50861 -3.91312
 0 0 5
 -1.90983 3.09017 0
 -3 4.8541 -2.8541
 0 0 5
 -1.90983 3.09017 0
 -3.15451 5.1041 -3.25861
 0 0 5
 -1.90983 3.09017 0
 -3.30902 5.3541 -3.66312
 0 0 5
 -1.90983 3.09017 0
 -2.90451 4.69959 -2.6041
 0 0 5
 -1.90983 3.09017 0
 -3.05902 4.94959 -3.00861
 0 0 5
 -1.90983 3.09017 0
 -3.21353 5.19959 -3.41312
 0 0 5
 -1.90983 3.09017 0
 -2.80902 4.54508 -2.3541
 0 0 5
 -1.90983 3.09017 0
 -2.96353 4.79508 -2.75861
 0 0 5
 -1.90983 3.09017 0
 -3.11803 5.04508 -3.16312
 0 0 5
 0 0 0
 0 0 -3
 0 0 5
 0 0 0
 0 0 -3
 0 0 5
 0 0 0
 0 0 -3
 0 0 5
 0 0 0
 0 0 -3
 0 0 5
 0 0 0
 0 0 -3
 0 0 5
 -1.90983 -3.09017 0
 -3.40451 -5.50861 -3.91312
 0 0 5
 -1.90983 -3.09017 0
 -3.25 -5.25861 -3.50861
 0 0 5
 -1.90983 -3.09017 0
 -3.30902 -5.3541 -3.66312
 0 0 5
 -1.90983 -3.09017 0
 -3.15451 -5.1041 -3.25861
 0 0 5
 -1.90983 -3.09017 0
 -3 -4.8541 -2.8541
 0 0 5
 -1.90983 -3.09017 0
 -3.21353 -5.19959 -3.41312
 0 0 5
 -1.90983 -3.09017 0
 -3.05902 -4.94959 -3.00861
 0 0 5
 -1.90983 -3.09017 0
 -2.90451 -4.69959 -2.6041
 0 0 5
 -1.90983 -3.09017 0
 -2.75 -4.44959 -2.19959
 0 0 5
 -1.90983 -3.09017 0
 -3.11803 -5.04508 -3.16312
 0 0 5
 -1.90983 -3.09017 0
 -2.96353 -4.79508 -2.75861
 0 0 5
 -1.90983 -3.09017 0
 -2.80902 -4.54508 -2.3541
 0 0 5
 1.90983 -3.09017 0
 3.11803 -5.04508 -3.16312
 0 0 5
 1.90983 -3.09017 0
 2.96353 -4.79508 -2.75861
 0 0 5
 1.90983 -3.09017 0
 2.80902 -4.54508 -2.3541
 0 0 5
 1.90983 -3.09017 0
 3.21353 -5.19959 -3.41312
 0 0 5
 1.90983 -3.09017 0
 3.05902 -4.94959 -3.00861
 0 0 5
 1.90983 -3.09017 0
 2.90451 -4.69959 -2.6041
 0 0 5
 1.90983 -3.09017 0
 3.30902 -5.3541 -3.66312
 0 0 5
 1.90983 -3.09017 0
 3.15451 -5.1041 -3.25861
 0 0 5
 1.90983 -3.09017 0
 3 -4.8541 -2.8541
 0 0 5
 1.90983 -3.09017 0
 3.40451 -5.50861 -3.91312
 0 0 5
 -8.09017 -3.09017 0
 -11.2812 -4.30902 -1.97214
 0 0 5
 -8.09017 -3.09017 0
 -11.0312 -4.21353 -1.81763
 0 0 5
 -8.09017 -3.09017 0
 -10.7812 -4.11803 -1.66312
 0 0 5
 -8.09017 -3.09017 0
 -10.1266 -3.86803 -1.25861
 0 0 5
 -8.09017 3.09017 0
 -10.7812 4.11803 -1.66312
 0 0 5
 -8.09017 3.09017 0
 -11.0312 4.21353 -1.81763
 0 0 5
 -8.09017 3.09017 0
 -11.2812 4.30902 -1.97214
 0 0 5
 -8.09017 3.09017 0
 -10.1266 3.86803 -1.25861
 0 0 5
 4.94113 -1.14396 0
 7.00739 -1.62233 -2.09088
 0 0 5
 4.94113 -1.14396 0
 7.60016 -1.75957 -2.69071
 0 0 5
 4.94113 -1.14396 0
 7.48872 -1.73377 -2.57794
 0 0 5
 4.94113 -1.14396 0
 7.37728 -1.70797 -2.46518
 0 0 5
 4.94113 -1.14396 0
 8.08149 -1.871 -3.17778
 0 0 5
 4.94113 -1.14396 0
 7.97005 -1.8452 -3.06501
 0 0 5
 4.94113 -1.14396 0
 7.85862 -1.8194 -2.95225
 0 0 5
 4.94113 -1.14396 0
 7.74718 -1.7936 -2.83948
 0 0 5
 4.94113 -1.14396 0
 8.56282 -1.98244 -3.66484
 0 0 5
 4.94113 -1.14396 0
 8.45138 -1.95664 -3.55208
 0 0 5
 4.94113 -1.14396 0
 8.33995 -1.93084 -3.43931
 0 0 5
 8.09017 0 0
 10.0902 0 -1.23607
 0 0 5
 4.94113 1.14396 0
 7.00739 1.62233 -2.09088
 0 0 5
 4.94113 1.14396 0
 7.37728 1.70797 -2.46518
 0 0 5
 4.94113 1.14396 0
 7.48872 1.73377 -2.57794
 0 0 5
 4.94113 1.14396 0
 7.60016 1.75957 -2.69071
 0 0 5
 4.94113 1.14396 0
 7.85862 1.8194 -2.95225
 0 0 5
 4.94113 1.14396 0
 7.97005 1.8452 -3.06501
 0 0 5
 4.94113 1.14396 0
 8.08149 1.871 -3.17778
 0 0 5
 4.94113 1.14396 0
 8.33995 1.93084 -3.43931
 0 0 5
 4.94113 1.14396 0
 8.45138 1.95664 -3.55208
 0 0 5
 4.94113 1.14396 0
 8.56282 1.98244 -3.66484
 0 0 5
 1.15759 5.05957 -8.88178e-16
 1.7936 7.83948 -2.74718
 0 0 5
 1.15759 5.05957 -8.88178e-16
 1.90637 8.33235 -3.23425
 0 0 5
 1.15759 5.05957 -8.88178e-16
 1.70664 7.45938 -2.37155
 0 0 5
 1.15759 5.05957 -8.88178e-16
 1.8194 7.95225 -2.85862
 0 0 5
 1.15759 5.05957 -8.88178e-16
 1.93217 8.44512 -3.34568
 0 0 5
 1.15759 5.05957 -8.88178e-16
 1.73244 7.57214 -2.48299
 0 0 5
 1.15759 5.05957 -8.88178e-16
 1.8452 8.06501 -2.97005
 0 0 5
 1.15759 5.05957 -8.88178e-16
 1.95797 8.55788 -3.45712
 0 0 5
 1.15759 5.05957 -8.88178e-16
 1.75824 7.68491 -2.59442
 0 0 5
 1.15759 5.05957 -8.88178e-16
 1.871 8.17778 -3.08149
 0 0 5
 1.15759 5.05957 -8.88178e-16
 1.98377 8.67064 -3.56856
 0 0 5
 3.61803 5.8541 8.88178e-16
 4.77254 7.72214 -1.59549
 0 0 5
 3.61803 5.8541 8.88178e-16
 5.06525 8.19574 -2
 0 0 5
 3.61803 5.8541 8.88178e-16
 5.35795 8.66935 -2.40451
 0 0 5
 3.61803 5.8541 8.88178e-16
 4.95344 8.01484 -1.84549
 0 0 5
 3.61803 5.8541 8.88178e-16
 5.24615 8.48845 -2.25
 0 0 5
 3.61803 5.8541 8.88178e-16
 5.53885 8.96205 -2.65451
 0 0 5
 3.61803 5.8541 8.88178e-16
 4.84164 7.83394 -1.69098
 0 0 5
 3.61803 5.8541 8.88178e-16
 5.13435 8.30755 -2.09549
 0 0 5
 3.61803 5.8541 8.88178e-16
 5.42705 8.78115 -2.5
 0 0 5
 3.61803 5.8541 8.88178e-16
 5.71976 9.25476 -2.90451
 0 0 5
 3.61803 5.8541 8.88178e-16
 5.31525 8.60025 -2.34549
 0 0 5
 3.61803 5.8541 8.88178e-16
 5.60795 9.07386 -2.75
 0 0 5
 3.61803 5.8541 8.88178e-16
 5.90066 9.54746 -3.15451
 0 0 5
 3.61803 5.8541 8.88178e-16
 5.78885 9.36656 -3
 0 0 5
 3.61803 5.8541 8.88178e-16
 6.08156 9.84017 -3.40451
 0 0 5
 3.61803 5.8541 8.88178e-16
 6.26246 10.1329 -3.65451
 0 0 5
 4.27051 3.09017 0
 5.86803 4.24615 -1.87041
 0 0 5
 4.27051 3.09017 0
 5.96353 4.31525 -1.98222
 0 0 5
 4.27051 3.09017 0
 6.21353 4.49615 -2.27492
 0 0 5
 4.27051 3.09017 0
 6.46353 4.67705 -2.56763
 0 0 5
 4.27051 3.09017 0
 6.05902 4.38435 -2.09402
 0 0 5
 4.27051 3.09017 0
 6.30902 4.56525 -2.38673
 0 0 5
 4.27051 3.09017 0
 6.55902 4.74615 -2.67943
 0 0 5
 4.27051 3.09017 0
 6.80902 4.92705 -2.97214
 0 0 5
 4.27051 3.09017 0
 7.05902 5.10795 -3.26484
 0 0 5
 4.27051 3.09017 0
 6.65451 4.81525 -2.79123
 0 0 5
 4.27051 3.09017 0
 6.90451 4.99615 -3.08394
 0 0 5
 4.27051 3.09017 0
 7.15451 5.17705 -3.37664
 0 0 5
 4.27051 3.09017 0
 7.40451 5.35795 -3.66935
 0 0 5
 4.27051 3.09017 0
 7.65451 5.53885 -3.96205
 0 0 5
 4.27051 3.09017 0
 7 5.06525 -3.19574
 0 0 5
 4.27051 3.09017 0
 7.25 5.24615 -3.48845
 0 0 5
 4.27051 3.09017 0
 7.5 5.42705 -3.78115
 0 0 5
 4.27051 3.09017 0
 7.75 5.60795 -4.07386
 0 0 5
 4.27051 3.09017 0
 7.59549 5.49615 -3.89296
 0 0 5
 4.27051 3.09017 0
 7.84549 5.67705 -4.18566
 0 0 5
 4.27051 3.09017 0
 8.09549 5.85795 -4.47837
 0 0 5
 2.5148 1.50633 0
 3.78472 2.26698 -2.52488
 0 0 5
 2.5148 1.50633 0
 3.89749 2.33453 -2.74908
 0 0 5
 2.5148 1.50633 0
 3.97298 2.37975 -2.89918
 0 0 5
 2.5148 1.50633 0
 4.08575 2.44729 -3.12338
 0 0 5
 2.5148 1.50633 0
 4.19851 2.51484 -3.34759
 0 0 5
 2.5148 1.50633 0
 4.16124 2.49251 -3.27349
 0 0 5
 2.5148 1.50633 0
 4.274 2.56006 -3.49769
 0 0 5
 8.09017 6.90983 0
 9.29746 7.94098 -0.746149
 0 0 5
 8.09017 6.90983 0
 9.36656 8 -0.788854
 0 0 5
 8.09017 6.90983 0
 9.77107 8.34549 -1.03885
 0 0 5
 8.09017 6.90983 0
 9.84017 8.40451 -1.08156
 0 0 5
 8.09017 6.90983 0
 10.2447 8.75 -1.33156
 0 0 5
 -1.15759 5.05957 -8.88178e-16
 -1.75824 7.68491 -2.59442
 0 0 5
 -1.15759 5.05957 -8.88178e-16
 -1.871 8.17778 -3.08149
 0 0 5
 -1.15759 5.05957 -8.88178e-16
 -1.98377 8.67064 -3.56856
 0 0 5
 -1.15759 5.05957 -8.88178e-16
 -1.73244 7.57214 -2.48299
 0 0 5
 -1.15759 5.05957 -8.88178e-16
 -1.8452 8.06501 -2.97005
 0 0 5
 -1.15759 5.05957 -8.88178e-16
 -1.95797 8.55788 -3.45712
 0 0 5
 -1.15759 5.05957 -8.88178e-16
 -1.70664 7.45938 -2.37155
 0 0 5
 -1.15759 5.05957 -8.88178e-16
 -1.8194 7.95225 -2.85862
 0 0 5
 -1.15759 5.05957 -8.88178e-16
 -1.93217 8.44512 -3.34568
 0 0 5
 0 3.09017 0
 0 4.68328 -2.57771
 0 0 5
 0 3.09017 0
 0 4.95967 -3.02492
 0 0 5
 0 3.09017 0
 0 5.23607 -3.47214
 0 0 5
 0 3.09017 0
 0 4.40689 -2.1305
 0 0 5
 0 3.09017 0
 0 4.68328 -2.57771
 0 0 5
 0 3.09017 0
 0 4.95967 -3.02492
 0 0 5
 0 3.09017 0
 0 5.23607 -3.47214
 0 0 5
 0 3.09017 0
 0 5.51246 -3.91935
 0 0 5
 0 3.09017 0
 0 4.68328 -2.57771
 0 0 5
 0 3.09017 0
 0 4.95967 -3.02492
 0 0 5
 0 3.09017 0
 0 5.23607 -3.47214
 0 0 5
 -1.4204 0 0
 -2.32695 0 -3.1912
 0 0 5
 -1.4204 0 0
 -2.32695 0 -3.1912
 0 0 5
 -1.4204 0 0
 -2.32695 0 -3.1912
 0 0 5
 -1.4204 0 0
 -2.25227 0 -2.92833
 0 0 5
 -1.4204 0 0
 -2.25227 0 -2.92833
 0 0 5
 -1.4204 0 0
 -2.25227 0 -2.92833
 0 0 5
 -1.4204 0 0
 -2.1776 0 -2.66547
 0 0 5
 -0.854102 1.38197 0
 -1.37426 2.22361 -3.04508
 0 0 5
 -0.854102 1.38197 0
 -1.41697 2.29271 -3.29508
 0 0 5
 -0.854102 1.38197 0
 -1.30517 2.1118 -2.64058
 0 0 5
 -0.854102 1.38197 0
 -1.34787 2.1809 -2.89058
 0 0 5
 -0.854102 1.38197 0
 -1.39058 2.25 -3.14058
 0 0 5
 -0.854102 1.38197 0
[...]
CELL_DATA 432
FIELD FieldData 2
LaunchID 1 432 int
 2
 2
 2
 2
 2
 2
 2
 2
 2
 2
 3
 3
 3
 3
 3
 3
 3
 3
 3
 3
 7
 24
 25
 26
 26
 26
 26
 26
 26
 26
 26
 26
 26
 26
 26
 27
 27
 27
 27
 27
 27
 27
 27
 27
 27
 28
 28
 28
 28
 28
 29
 29
 29
 29
 29
 29
 29
 29
 29
 29
 29
 29
 30
 30
 30
 30
 30
 30
 30
 30
 30
 30
 40
 40
 40
 40
 41
 41
 41
 41
 86
 86
 86
 86
 86
 86
 86
 86
 86
 86
 86
 87
 88
 88
 88
 88
 88
 88
 88
 88
 88
 88
 91
 91
 91
 91
 91
 91
 91
 91
 91
 91
 91
 92
 92
 92
 92
 92
 92
 92
 92
 92
 92
 92
 92
 92
 92
 92
 92
 93
 93
 93
 93
 93
 93
 93
 93
 93
 93
 93
 93
 93
 93
 93
 93
 93
 93
 93
 93
 93
 94
 94
 94
 94
 94
 94
 94
 95
 95
 95
 95
 95
 96
 96
 96
 96
 96
 96
 96
 96
 96
 97
 97
 97
 97
 97
 97
 97
 97
 97
 97
 97
 98
 98
 98
 98
 98
 98
 98
 99
 99
 99
 99
 99
 99
 100
 100
 100
 100
 100
 100
 101
 101
 101
 101
 101
 101
 102
 102
 102
 102
 102
 102
 103
 103
 103
 103
 103
 103
 103
 104
 104
 104
 104
 104
 104
 104
 105
 105
 105
 105
 105
 105
 105
 105
 105
 105
 105
 105
 105
 105
 106
 106
 106
 106
 106
 106
 106
 106
 106
 106
 106
 107
 107
 107
 107
 107
 107
 107
 107
 107
 107
 107
 107
 108
 108
 108
 108
 108
 109
 109
 109
 109
 109
 109
 111
 111
 111
 111
 111
 111
 111
 111
 111
 111
 111
 111
 111
 111
 111
 111
 111
 112
 112
 112
 112
 114
 114
 114
 114
 114
 114
 114
 114
 114
 114
 114
 114
 114
 114
 114
 114
 114
 153
 153
 153
 153
 153
 153
 153
 153
 153
 153
 153
 153
 153
 153
 154
 154
 155
 155
 155
 155
 155
 155
 155
 155
 155
 155
 155
 155
 155
 156
 156
 156
 156
 156
 156
 157
 157
 157
 157
 157
 157
 157
 157
 157
 157
 157
 157
 157
 157
 157
 157
 157
 158
 158
 158
 158
 158
 158
 158
 158
 158
 158
 158
 158
 159
 159
 159
 159
 159
 159
 159
 159
 159
 159
 159
 159
 159
 159
 159
 159
 159
 159
 159
 159
 159
 159
 160
 160
 160
 160
 160
 160
 160
 160
 160
 160
 160
 160
 160
 160
 160
 160
 160
 160
 160
 160
 160
 161
 161
 161
 161
 161
 161
 161
 161
 161
 161
 161
 161
ReceiverID 1 432 int
 70
 89
 90
 91
 109
 110
 111
 129
 130
 131
 289
 290
 291
 309
 310
 311
 329
 330
 331
 350
 200
 394
 386
 254
 255
 256
 273
 274
 275
 276
 294
 295
 296
 315
 316
 116
 134
 135
 136
 154
 155
 156
 174
 175
 176
 190
 209
 210
 211
 230
 104
 105
 124
 125
 126
 144
 145
 146
 147
 164
 165
 166
 244
 245
 246
 264
 265
 266
 284
 285
 286
 304
 4
 5
 6
 26
 14
 15
 16
 34
 328
 347
 348
 349
 367
 368
 369
 370
 387
 388
 389
 390
 332
 351
 352
 353
 371
 372
 373
 391
 392
 393
 218
 219
 237
 238
 239
 257
 258
 259
 277
 278
 279
 297
 298
 299
 317
 318
 319
 336
 337
 338
 339
 357
 358
 359
 378
 379
 399
 295
 314
 315
 316
 333
 334
 335
 336
 337
 354
 355
 356
 357
 358
 374
 375
 376
 377
 395
 396
 397
 272
 273
 292
 293
 294
 312
 313
 359
 378
 379
 398
 399
 157
 158
 159
 177
 178
 179
 197
 198
 199
 194
 195
 196
 213
 214
 215
 216
 217
 234
 235
 236
 149
 150
 151
 169
 170
 171
 190
 172
 173
 191
 192
 193
 212
 112
 113
 132
 133
 152
 153
 231
 232
 233
 251
 252
 253
 249
 250
 251
 269
 270
 271
 107
 108
 126
 127
 128
 147
 148
 167
 168
 169
 187
 188
 189
 208
 201
 202
 220
 221
 222
 223
 240
 241
 242
 243
 260
 261
 262
 263
 184
 185
 186
 203
 204
 205
 206
 207
 224
 225
 226
 140
 141
 142
 143
 160
 161
 162
 163
 180
 181
 182
 183
 227
 228
 229
 247
 248
 267
 268
 287
 288
 307
 308
 280
 281
 282
 283
 300
 301
 302
 303
 320
 321
 322
 323
 340
 341
 342
 360
 361
 362
 380
 381
 382
 305
 306
 324
 325
 326
 327
 343
 344
 345
 346
 363
 364
 365
 366
 383
 384
 385
 11
 12
 13
 31
 32
 33
 50
 51
 52
 53
 71
 72
 73
 92
 10
 30
 7
 8
 9
 27
 28
 29
 47
 48
 49
 67
 68
 69
 88
 17
 18
 19
 38
 39
 58
 35
 36
 37
 54
 55
 56
 57
 74
 75
 76
 77
 93
 94
 95
 96
 114
 115
 59
 78
 79
 97
 98
 99
 117
 118
 119
 137
 138
 139
 20
 21
 40
 41
 42
 60
 61
 62
 63
 80
 81
 82
 83
 84
 100
 101
 102
 103
 120
 121
 122
 123
 23
 24
 25
 43
 44
 45
 46
 62
 63
 64
 65
 66
 83
 84
 85
 86
 87
 104
 105
 106
 125
 0
 1
 2
 3
 20
 21
 22
 40
 41
 42
 60
 61
