# vtk DataFile Version 2.0
Ray Path Visualization
ASCII
DATASET POLYDATA

POINTS 441 float
 -10 -10 3
 -10 -9 3
 -10 -8 3
 -10 -7 3
 -10 -6 3
 -10 -5 3
 -10 -4 3
 -10 -3 3
 -10 -2 3
 -10 -1 3
 -10 0 3
 -10 1 3
 -10 2 3
 -10 3 3
 -10 4 3
 -10 5 3
 -10 6 3
 -10 7 3
 -10 8 3
 -10 9 3
 -10 10 3
 -9 -10 3
 -9 -9 3
 -9 -8 3
 -9 -7 3
 -9 -6 3
 -9 -5 3
 -9 -4 3
 -9 -3 3
 -9 -2 3
 -9 -1 3
 -9 0 3
 -9 1 3
 -9 2 3
 -9 3 3
 -9 4 3
 -9 5 3
 -9 6 3
 -9 7 3
 -9 8 3
 -9 9 3
 -9 10 3
 -8 -10 3
 -8 -9 3
 -8 -8 3
 -8 -7 3
 -8 -6 3
 -8 -5 3
 -8 -4 3
 -8 -3 3
 -8 -2 3
 -8 -1 3
 -8 0 3
 -8 1 3
 -8 2 3
 -8 3 3
 -8 4 3
 -8 5 3
 -8 6 3
 -8 7 3
 -8 8 3
 -8 9 3
 -8 10 3
 -7 -10 3
 -7 -9 3
 -7 -8 3
 -7 -7 3
 -7 -6 3
 -7 -5 3
 -7 -4 3
 -7 -3 3
 -7 -2 3
 -7 -1 3
 -7 0 3
 -7 1 3
 -7 2 3
 -7 3 3
 -7 4 3
 -7 5 3
 -7 6 3
 -7 7 3
 -7 8 3
 -7 9 3
 -7 10 3
 -6 -10 3
 -6 -9 3
 -6 -8 3
 -6 -7 3
 -6 -6 3
 -6 -5 3
 -6 -4 3
 -6 -3 3
 -6 -2 3
 -6 -1 3
 -6 0 3
 -6 1 3
 -6 2 3
 -6 3 3
 -6 4 3
 -6 5 3
 -6 6 3
 -6 7 3
 -6 8 3
 -6 9 3
 -6 10 3
 -5 -10 3
 -5 -9 3
 -5 -8 3
 -5 -7 3
 -5 -6 3
 -5 -5 3
 -5 -4 3
 -5 -3 3
 -5 -2 3
 -5 -1 3
 -5 0 3
 -5 1 3
 -5 2 3
 -5 3 3
 -5 4 3
 -5 5 3
 -5 6 3
 -5 7 3
 -5 8 3
 -5 9 3
 -5 10 3
 -4 -10 3
 -4 -9 3
 -4 -8 3
 -4 -7 3
 -4 -6 3
 -4 -5 3
 -4 -4 3
 -4 -3 3
 -4 -2 3
 -4 -1 3
 -4 0 3
 -4 1 3
 -4 2 3
 -4 3 3
 -4 4 3
 -4 5 3
 -4 6 3
 -4 7 3
 -4 8 3
 -4 9 3
 -4 10 3
 -3 -10 3
 -3 -9 3
 -3 -8 3
 -3 -7 3
 -3 -6 3
 -3 -5 3
 -3 -4 3
 -3 -3 3
 -3 -2 3
 -3 -1 3
 -3 0 3
 -3 1 3
 -3 2 3
 -3 3 3
 -3 4 3
 -3 5 3
 -3 6 3
 -3 7 3
 -3 8 3
 -3 9 3
 -3 10 3
 -2 -10 3
 -2 -9 3
 -2 -8 3
 -2 -7 3
 -2 -6 3
 -2 -5 3
 -2 -4 3
 -2 -3 3
 -2 -2 3
 -2 -1 3
 -2 0 3
 -2 1 3
 -2 2 3
 -2 3 3
 -2 4 3
 -2 5 3
 -2 6 3
 -2 7 3
 -2 8 3
 -2 9 3
 -2 10 3
 -1 -10 3
 -1 -9 3
 -1 -8 3
 -1 -7 3
 -1 -6 3
 -1 -5 3
 -1 -4 3
 -1 -3 3
 -1 -2 3
 -1 -1 3
 -1 0 3
 -1 1 3
 -1 2 3
 -1 3 3
 -1 4 3
 -1 5 3
 -1 6 3
 -1 7 3
 -1 8 3
 -1 9 3
 -1 10 3
 0 -10 3
 0 -9 3
 0 -8 3
 0 -7 3
 0 -6 3
 0 -5 3
 0 -4 3
 0 -3 3
 0 -2 3
 0 -1 3
 0 0 3
 0 1 3
 0 2 3
 0 3 3
 0 4 3
 0 5 3
 0 6 3
 0 7 3
 0 8 3
 0 9 3
 0 10 3
 1 -10 3
 1 -9 3
 1 -8 3
 1 -7 3
 1 -6 3
 1 -5 3
 1 -4 3
 1 -3 3
 1 -2 3
 1 -1 3
 1 0 3
 1 1 3
 1 2 3
 1 3 3
 1 4 3
 1 5 3
 1 6 3
 1 7 3
 1 8 3
 1 9 3
 1 10 3
 2 -10 3
 2 -9 3
 2 -8 3
 2 -7 3
 2 -6 3
 2 -5 3
 2 -4 3
 2 -3 3
 2 -2 3
 2 -1 3
 2 0 3
 2 1 3
 2 2 3
 2 3 3
 2 4 3
 2 5 3
 2 6 3
 2 7 3
 2 8 3
 2 9 3
 2 10 3
 3 -10 3
 3 -9 3
 3 -8 3
 3 -7 3
 3 -6 3
 3 -5 3
 3 -4 3
 3 -3 3
 3 -2 3
 3 -1 3
 3 0 3
 3 1 3
 3 2 3
 3 3 3
 3 4 3
 3 5 3
 3 6 3
 3 7 3
 3 8 3
 3 9 3
 3 10 3
 4 -10 3
 4 -9 3
 4 -8 3
 4 -7 3
 4 -6 3
 4 -5 3
 4 -4 3
 4 -3 3
 4 -2 3
 4 -1 3
 4 0 3
 4 1 3
 4 2 3
 4 3 3
 4 4 3
 4 5 3
 4 6 3
 4 7 3
 4 8 3
 4 9 3
 4 10 3
 5 -10 3
 5 -9 3
 5 -8 3
 5 -7 3
 5 -6 3
 5 -5 3
 5 -4 3
 5 -3 3
 5 -2 3
 5 -1 3
 5 0 3
 5 1 3
 5 2 3
 5 3 3
 5 4 3
 5 5 3
 5 6 3
 5 7 3
 5 8 3
 5 9 3
 5 10 3
 6 -10 3
 6 -9 3
 6 -8 3
 6 -7 3
 6 -6 3
 6 -5 3
 6 -4 3
 6 -3 3
 6 -2 3
 6 -1 3
 6 0 3
 6 1 3
 6 2 3
 6 3 3
 6 4 3
 6 5 3
 6 6 3
 6 7 3
 6 8 3
 6 9 3
 6 10 3
 7 -10 3
 7 -9 3
 7 -8 3
 7 -7 3
 7 -6 3
 7 -5 3
 7 -4 3
 7 -3 3
 7 -2 3
 7 -1 3
 7 0 3
 7 1 3
 7 2 3
 7 3 3
 7 4 3
 7 5 3
 7 6 3
 7 7 3
 7 8 3
 7 9 3
 7 10 3
 8 -10 3
 8 -9 3
 8 -8 3
 8 -7 3
 8 -6 3
 8 -5 3
 8 -4 3
 8 -3 3
 8 -2 3
 8 -1 3
 8 0 3
 8 1 3
 8 2 3
 8 3 3
 8 4 3
 8 5 3
 8 6 3
 8 7 3
 8 8 3
 8 9 3
 8 10 3
 9 -10 3
 9 -9 3
 9 -8 3
 9 -7 3
 9 -6 3
 9 -5 3
 9 -4 3
 9 -3 3
 9 -2 3
 9 -1 3
 9 0 3
 9 1 3
 9 2 3
 9 3 3
 9 4 3
 9 5 3
 9 6 3
 9 7 3
 9 8 3
 9 9 3
 9 10 3
 10 -10 3
 10 -9 3
 10 -8 3
 10 -7 3
 10 -6 3
 10 -5 3
 10 -4 3
 10 -3 3
 10 -2 3
 10 -1 3
 10 0 3
 10 1 3
 10 2 3
 10 3 3
 10 4 3
 10 5 3
 10 6 3
 10 7 3
 10 8 3
 10 9 3
 10 10 3
VERTICES 1 442
441
 0 1 2 3 4
 5 6 7 8 9
 10 11 12 13 14
 15 16 17 18 19
 20 21 22 23 24
 25 26 27 28 29
 30 31 32 33 34
 35 36 37 38 39
 40 41 42 43 44
 45 46 47 48 49
 50 51 52 53 54
 55 56 57 58 59
 60 61 62 63 64
 65 66 67 68 69
 70 71 72 73 74
 75 76 77 78 79
 80 81 82 83 84
 85 86 87 88 89
 90 91 92 93 94
 95 96 97 98 99
 100 101 102 103 104
 105 106 107 108 109
 110 111 112 113 114
 115 116 117 118 119
 120 121 122 123 124
 125 126 127 128 129
 130 131 132 133 134
 135 136 137 138 139
 140 141 142 143 144
 145 146 147 148 149
 150 151 152 153 154
 155 156 157 158 159
 160 161 162 163 164
 165 166 167 168 169
 170 171 172 173 174
 175 176 177 178 179
 180 181 182 183 184
 185 186 187 188 189
 190 191 192 193 194
 195 196 197 198 199
 200 201 202 203 204
 205 206 207 208 209
 210 211 212 213 214
 215 216 217 218 219
 220 221 222 223 224
 225 226 227 228 229
 230 231 232 233 234
 235 236 237 238 239
 240 241 242 243 244
 245 246 247 248 249
 250 251 252 253 254
 255 256 257 258 259
 260 261 262 263 264
 265 266 267 268 269
 270 271 272 273 274
 275 276 277 278 279
 280 281 282 283 284
 285 286 287 288 289
 290 291 292 293 294
 295 296 297 298 299
 300 301 302 303 304
 305 306 307 308 309
 310 311 312 313 314
 315 316 317 318 319
 320 321 322 323 324
 325 326 327 328 329
 330 331 332 333 334
 335 336 337 338 339
 340 341 342 343 344
 345 346 347 348 349
 350 351 352 353 354
 355 356 357 358 359
 360 361 362 363 364
 365 366 367 368 369
 370 371 372 373 374
 375 376 377 378 379
 380 381 382 383 384
 385 386 387 388 389
 390 391 392 393 394
 395 396 397 398 399
 400 401 402 403 404
 405 406 407 408 409
 410 411 412 413 414
 415 416 417 418 419
 420 421 422 423 424
 425 426 427 428 429
 430 431 432 433 434
 435 436 437 438 439
 440
POINT_DATA 441
FIELD FieldData 4
ReceiverID 1 441 int
 0
 1
 2
 3
 4
 5
 6
 7
 8
 9
 10
 11
 12
 13
 14
 15
 16
 17
 18
 19
 20
 21
 22
 23
 24
 25
 26
 27
 28
 29
 30
 31
 32
 33
 34
 35
 36
 37
 38
 39
 40
 41
 42
 43
 44
 45
 46
 47
 48
 49
 50
 51
 52
 53
 54
 55
 56
 57
 58
 59
 60
 61
 62
 63
 64
 65
 66
 67
 68
 69
 70
 71
 72
 73
 74
 75
 76
 77
 78
 79
 80
 81
 82
 83
 84
 85
 86
 87
 88
 89
 90
 91
 92
 93
 94
 95
 96
 97
 98
 99
 100
 101
 102
 103
 104
 105
 106
 107
 108
 109
 110
 111
 112
 113
 114
 115
 116
 117
 118
 119
 120
 121
 122
 123
 124
 125
 126
 127
 128
 129
 130
 131
 132
 133
 134
 135
 136
 137
 138
 139
 140
 141
 142
 143
 144
 145
 146
 147
 148
 149
 150
 151
 152
 153
 154
 155
 156
 157
 158
 159
 160
 161
 162
 163
 164
 165
 166
 167
 168
 169
 170
 171
 172
 173
 174
 175
 176
 177
 178
 179
 180
 181
 182
 183
 184
 185
 186
 187
 188
 189
 190
 191
 192
 193
 194
 195
 196
 197
 198
 199
 200
 201
 202
 203
 204
 205
 206
 207
 208
 209
 210
 211
 212
 213
 214
 215
 216
 217
 218
 219
 220
 221
 222
 223
 224
 225
 226
 227
 228
 229
 230
 231
 232
 233
 234
 235
 236
 237
 238
 239
 240
 241
 242
 243
 244
 245
 246
 247
 248
 249
 250
 251
 252
 253
 254
 255
 256
 257
 258
 259
 260
 261
 262
 263
 264
 265
 266
 267
 268
 269
 270
 271
 272
 273
 274
 275
 276
 277
 278
 279
 280
 281
 282
 283
 284
 285
 286
 287
 288
 289
 290
 291
 292
 293
 294
 295
 296
 297
 298
 299
 300
 301
 302
 303
 304
 305
 306
 307
 308
 309
 310
 311
 312
 313
 314
 315
 316
 317
 318
 319
 320
 321
 322
 323
 324
 325
 326
 327
 328
 329
 330
 331
 332
 333
 334
 335
 336
 337
 338
 339
 340
 341
 342
 343
 344
 345
 346
 347
 348
 349
 350
 351
 352
 353
 354
 355
 356
 357
 358
 359
 360
 361
 362
 363
 364
 365
 366
 367
 368
 369
 370
 371
 372
 373
 374
 375
 376
 377
 378
 379
 380
 381
 382
 383
 384
 385
 386
 387
 388
 389
 390
 391
 392
 393
 394
 395
 396
 397
 398
 399
 400
 401
 402
 403
 404
 405
 406
 407
 408
 409
 410
 411
 412
 413
 414
 415
 416
 417
 418
 419
 420
 421
 422
 423
 424
 425
 426
 427
 428
 429
 430
 431
 432
 433
 434
 435
 436
 437
 438
 439
 440
Eabs 1 441 double
 0.658887
 0.593316
 0.596731
 0.674051
 0.632229
 0.74549
 0.713556
 0.688914
 0.861626
 0.869921
 0.846608
 0.869921
 0.861626
 0.688914
 0.713556
 0.74549
 0.632229
 0.674051
 0.596731
 0.593316
 0.553085
 0.535188
 0.844552
 0.703624
 0.638628
 0.738081
 0.801259
 0.727526
 0.864674
 0.937296
 0.751982
 0.704158
 0.751982
 0.937296
 0.864674
 0.727526
 0.801259
 0.738081
 0.638628
 0.703624
 0.587966
 0.593316
 0.67959
 0.495002
 0.817598
 0.648955
 0.846608
 0.918519
 0.694669
 1.05833
 0.726543
 1.04968
 1.14209
 1.04968
 0.726543
 1.05833
 0.694669
 0.918519
 0.846608
 0.648955
 0.677777
 0.703624
 0.596731
 0.550108
 0.789108
 0.876256
 0.929291
 0.937296
 1.07359
 1.04968
 0.761561
 1.23943
 0.788686
 0.877262
 0.788686
 1.23943
 0.761561
 1.04968
 1.07359
 0.937296
 0.770605
 0.648955
 0.638628
 0.674051
 0.768063
 0.709249
 0.686998
 0.72848
 0.833139
 1.03657
 1.09757
 1.29594
 1.43541
 0.974975
 0.934978
 0.974975
 1.43541
 1.29594
 1.09757
 1.03657
 1.00115
 0.937296
 0.846608
 0.738081
 0.632229
 0.608084
 0.696579
 0.699547
 0.679995
 0.956834
 1.57202
 1.18867
 1.56221
 1.65417
 1.11169
 1.604
 1.11169
 1.65417
 1.56221
 1.18867
 0.788686
 1.03657
 1.07359
 0.918519
 0.801259
 0.74549
 0.761734
 0.889458
 1.05009
 0.872314
 1.05265
 1.20128
 1.61858
 1.604
 1.86788
 2.03616
 1.58095
 2.03616
 1.86788
 1.604
 1.22422
 1.18867
 1.09757
 1.04968
 0.694669
 0.727526
 0.713556
 0.846869
 0.772102
 0.725631
 1.21632
 1.00245
 1.03537
 1.37511
 1.98334
 1.64698
 2.0203
 2.31339
 2.0203
 1.64698
 1.60809
 1.604
 1.56221
 1.29594
 0.761561
 1.05833
 0.864674
 0.688914
 0.600778
 0.72848
 1.13142
 0.874082
 0.979612
 1.13371
 1.38039
 2.21018
 2.80146
 2.60107
 2.75643
 2.60107
 2.17374
 1.64698
 1.86788
 1.65417
 1.43541
 1.23943
 0.726543
 0.937296
 0.861626
 0.627901
 0.986218
 0.872314
 1.30657
 1.44477
 1.69839
 1.38973
 2.25506
 2.871
 4.02166
 3.8217
 3.38309
 2.60107
 2.0203
 2.03616
 1.11169
 0.974975
 0.788686
 1.04968
 0.751982
 0.869921
 0.846608
 0.704158
 1.14209
 0.877262
 0.934978
 1.604
 1.58095
 2.31339
 2.75643
 3.8217
 0
 3.94431
 2.34347
 1.97543
 1.96257
 1.37511
 1.48832
 1.26949
 0.766437
 1.03537
 0.686998
 0.869921
 0.751982
 1.04968
 0.788686
 0.974975
 1.11169
 2.03616
 2.0203
 2.60107
 3.38309
 3.8217
 3.82955
 2.871
 2.25506
 1.38973
 1.69839
 1.44477
 1.30657
 0.872314
 0.986218
 0.627901
 0.861626
 0.937296
 0.726543
 1.23943
 1.43541
 1.65417
 1.86788
 1.64698
 2.17374
 2.60107
 2.75643
 2.871
 2.45522
 2.21018
 1.38039
 1.13371
 0.979612
 0.874082
 1.13142
 0.72848
 0.600778
 0.688914
 0.864674
 1.05833
 0.761561
 1.29594
 1.56221
 1.604
 1.60809
 1.64698
 2.0203
 2.31339
 2.25506
 2.21018
 1.70526
 1.37511
 1.03537
 1.00245
 1.21632
 0.725631
 0.772102
 0.846869
 0.713556
 0.727526
 0.694669
 1.04968
 1.09757
 1.18867
 1.22422
 1.604
 1.86788
 2.03616
 1.58095
 1.38973
 1.38039
 1.37511
 1.29385
 1.20128
 1.05265
 0.872314
 1.05009
 0.889458
 0.761734
 0.74549
 0.801259
 0.918519
 1.07359
 1.03657
 0.788686
 1.18867
 1.56221
 1.65417
 1.11169
 1.604
 1.69839
 1.13371
 1.03537
 1.20128
 1.02783
 0.956834
 0.679995
 0.699547
 0.696579
 0.608084
 0.632229
 0.738081
 0.846608
 0.937296
 1.00115
 1.03657
 1.09757
 1.29594
 1.43541
 0.974975
 0.934978
 1.44477
 0.979612
 1.00245
 1.05265
 0.956834
 0.882816
 0.72848
 0.686998
 0.709249
 0.768063
 0.674051
 0.638628
 0.648955
 0.770605
 0.937296
 1.07359
 1.04968
 0.761561
 1.23943
 0.788686
 0.877262
 1.30657
 0.874082
 1.21632
 0.872314
 0.679995
 0.72848
 0.784079
 0.876256
 0.789108
 0.550108
 0.596731
 0.703624
 0.677777
 0.648955
 0.846608
 0.918519
 0.694669
 1.05833
 0.726543
 1.04968
 1.14209
 0.872314
 1.13142
 0.725631
 1.05009
 0.699547
 0.686998
 0.876256
 0.700856
 0.495002
 0.67959
 0.593316
 0.587966
 0.703624
 0.638628
 0.738081
 0.801259
 0.727526
 0.864674
 0.937296
 0.751982
 0.704158
 0.986218
 0.72848
 0.772102
 0.889458
 0.696579
 0.709249
 0.789108
 0.495002
 0.688446
 0.535188
 0.553085
 0.593316
 0.596731
 0.674051
 0.632229
 0.74549
 0.713556
 0.688914
 0.861626
 0.869921
 0.846608
 0.627901
 0.600778
 0.846869
 0.761734
 0.608084
 0.768063
 0.550108
 0.67959
 0.535188
 0.58807
EdB 1 441 double
 116.376
 115.466
 115.516
 116.574
 116.017
 117.449
 117.069
 116.763
 118.706
 118.79
 118.554
 118.79
 118.706
 116.763
 117.069
 117.449
 116.017
 116.574
 115.516
 115.466
 114.856
 114.57
 118.533
 116.947
 116.105
 117.362
 118.075
 117.237
 118.737
 119.438
 117.524
 116.953
 117.524
 119.438
 118.737
 117.237
 118.075
 117.362
 116.105
 116.947
 115.387
 115.466
 116.645
 113.892
 118.251
 116.244
 118.554
 119.262
 116.836
 120.492
 117.225
 120.421
 121.154
 120.421
 117.225
 120.492
 116.836
 119.262
 118.554
 116.244
 116.622
 116.947
 115.516
 114.809
 117.943
 118.853
 119.363
 119.438
 120.617
 120.421
 117.634
 121.864
 117.938
 118.863
 117.938
 121.864
 117.634
 120.421
 120.617
 119.438
 117.737
 116.244
 116.105
 116.574
 117.708
 117.016
 116.739
 117.248
 118.414
 120.312
 120.809
 122.252
 123.14
 119.78
 119.416
 119.78
 123.14
 122.252
 120.809
 120.312
 120.01
 119.438
 118.554
 117.362
 116.017
 115.679
 116.859
 116.896
 116.65
 119.617
 123.929
 121.501
 123.875
 124.372
 120.92
 124.104
 120.92
 124.372
 123.875
 121.501
 117.938
 120.312
 120.617
 119.262
 118.075
 117.449
 117.636
 118.983
 120.424
 118.813
 120.446
 121.593
 124.183
 124.104
 125.427
 126.176
 123.978
 126.176
 125.427
 124.104
 121.757
 121.501
 120.809
 120.421
 116.836
 117.237
 117.069
 118.556
 117.753
 117.214
 121.701
 120.021
 120.302
 122.767
 125.948
 124.334
 126.108
 127.285
 126.108
 124.334
 124.126
 124.104
 123.875
 122.252
 117.634
 120.492
 118.737
 116.763
 115.574
 117.248
 121.072
 118.831
 119.821
 121.09
 122.8
 126.889
 128.948
 128.303
 128.807
 128.303
 126.744
 124.334
 125.427
 124.372
 123.14
 121.864
 117.225
 119.438
 118.706
 115.958
 119.879
 118.813
 122.323
 123.196
 124.601
 122.859
 127.063
 129.161
 132.088
 131.645
 130.586
 128.303
 126.108
 126.176
 120.92
 119.78
 117.938
 120.421
 117.524
 118.79
 118.554
 116.953
 121.154
 118.863
 119.416
 124.104
 123.978
 127.285
 128.807
 131.645
 -300
 131.919
 127.397
 125.913
 125.856
 122.767
 123.454
 122.073
 117.69
 120.302
 116.739
 118.79
 117.524
 120.421
 117.938
 119.78
 120.92
 126.176
 126.108
 128.303
 130.586
 131.645
 131.663
 129.161
 127.063
 122.859
 124.601
 123.196
 122.323
 118.813
 119.879
 115.958
 118.706
 119.438
 117.225
 121.864
 123.14
 124.372
 125.427
 124.334
 126.744
 128.303
 128.807
 129.161
 127.802
 126.889
 122.8
 121.09
 119.821
 118.831
 121.072
 117.248
 115.574
 116.763
 118.737
 120.492
 117.634
 122.252
 123.875
 124.104
 124.126
 124.334
 126.108
 127.285
 127.063
 126.889
 124.636
 122.767
 120.302
 120.021
 121.701
 117.214
 117.753
 118.556
 117.069
 117.237
 116.836
 120.421
 120.809
 121.501
 121.757
 124.104
 125.427
 126.176
 123.978
 122.859
 122.8
 122.767
 122.238
 121.593
 120.446
 118.813
 120.424
 118.983
 117.636
 117.449
 118.075
 119.262
 120.617
 120.312
 117.938
 121.501
 123.875
 124.372
 120.92
 124.104
 124.601
 121.09
 120.302
 121.593
 120.238
 119.617
 116.65
 116.896
 116.859
 115.679
 116.017
 117.362
 118.554
 119.438
 120.01
 120.312
 120.809
 122.252
 123.14
 119.78
 119.416
 123.196
 119.821
 120.021
 120.446
 119.617
 118.917
 117.248
 116.739
 117.016
 117.708
 116.574
 116.105
 116.244
 117.737
 119.438
 120.617
 120.421
 117.634
 121.864
 117.938
 118.863
 122.323
 118.831
 121.701
 118.813
 116.65
 117.248
 117.887
 118.853
 117.943
 114.809
 115.516
 116.947
 116.622
 116.244
 118.554
 119.262
 116.836
 120.492
 117.225
 120.421
 121.154
 118.813
 121.072
 117.214
 120.424
 116.896
 116.739
 118.853
 116.913
 113.892
 116.645
 115.466
 115.387
 116.947
 116.105
 117.362
 118.075
 117.237
 118.737
 119.438
 117.524
 116.953
 119.879
 117.248
 117.753
 118.983
 116.859
 117.016
 117.943
 113.892
 116.757
 114.57
 114.856
 115.466
 115.516
 116.574
 116.017
 117.449
 117.069
 116.763
 118.706
 118.79
 118.554
 115.958
 115.574
 118.556
 117.636
 115.679
 117.708
 114.809
 116.645
 114.57
 115.389
Phase 1 441 double
 -0.229149
 0.779591
 -4.40694
 1.84522
 3.85455
 3.30138
 -3.21486
 -1.46286
 -0.84438
 2.2202
 -0.397214
 5.3618
 -3.98597
 1.67873
 -0.0732679
 0.15979
 0.712953
 -1.29638
 -1.26535
 3.92118
 0.210834
 -1.22282
 0.259987
 0.776894
 -1.52832
 4.40326
 -4.89956
 4.69384
 3.21302
 -0.241368
 -1.69538
 3.45486
 1.44621
 2.90022
 0.071425
 1.55225
 -1.75796
 1.26166
 -4.66991
 -2.3647
 0.782219
 3.92118
 -2.16684
 1.20079
 5.02166
 -7.25203
 1.20384
 -3.79261
 7.3349
 -0.799236
 -4.36057
 -3.08339
 -2.9694
 0.0582012
 -1.21898
 2.34236
 4.19331
 -0.651021
 -1.93775
 -4.11044
 -1.5626
 -2.3647
 -1.26535
 -0.0726094
 2.46563
 -4.91686
 -4.13741
 -0.241368
 5.7494
 -3.08339
 1.6972
 -0.462908
 3.80606
 1.22434
 0.664463
 -3.6045
 -1.44439
 0.0582012
 2.60781
 2.90022
 2.4382
 -4.11044
 -4.66991
 -1.29638
 6.13147
 6.59734
 3.25015
 -4.53143
 2.04531
 -2.34736
 -5.9346
 5.08229
 -2.61468
 -2.7689
 -2.50628
 -5.91049
 0.526911
 1.9407
 -2.79301
 -5.48895
 -4.13746
 2.90022
 -1.93775
 1.26166
 0.712953
 1.29997
 5.53133
 -5.75117
 5.94697
 -0.25151
 4.10104
 1.9436
 -6.21965
 -2.66488
 -3.77266
 -0.753594
 -0.631068
 -5.80647
 -3.07806
 -1.19799
 0.664463
 -5.48895
 2.60781
 -0.651021
 -1.75796
 0.15979
 -0.978031
 0.615127
 5.63255
 -5.14059
 -3.91365
 0.0942455
 -5.49885
 0.522587
 -1.79811
 2.8247
 -1.44558
 5.9663
 -4.9397
 -2.61901
 1.9101
 -1.19799
 -2.79301
 0.0582012
 4.19331
 1.55225
 -0.0732679
 -3.70467
 1.04149
 0.85575
 0.867863
 6.87356
 5.23945
 -0.898781
 2.12229
 -1.89965
 -2.18358
 1.28359
 -5.32517
 1.24195
 0.568112
 -2.61901
 -3.07806
 1.9407
 -1.44439
 2.34236
 0.071425
 1.67873
 3.84857
 -4.53143
 -5.4577
 1.22622
 -4.0255
 2.49505
 -0.800978
 -1.46659
 -3.10349
 5.86606
 -2.90308
 2.72447
 0.8988
 1.24195
 -4.9397
 -5.80647
 0.526911
 -3.6045
 -1.21898
 2.90022
 -3.98597
 -2.29622
 0.385004
 -5.14059
 4.06433
 -1.66161
 -4.42916
 -3.23818
 3.33669
 6.31889
 -0.959807
 -2.20874
 2.44954
 2.72447
 -5.32517
 5.9663
 -0.631068
 -5.91049
 0.664463
 0.0582012
 1.44621
 5.3618
 -5.21049
 2.34818
 -8.01183
 3.10831
 -1.98641
 -3.99491
 1.18867
 6.46605
 0.972977
 -4.02253
 0
 -1.94852
 -2.4796
 0.772503
 -3.10244
 -0.75484
 -6.01925
 -1.24749
 1.88789
 -0.199751
 3.05159
 5.3618
 1.44621
 0.0582012
 0.664463
 -5.91049
 -0.631068
 5.9663
 -5.32517
 2.72447
 2.44954
 -0.843819
 -0.796388
 6.31889
 3.33669
 -3.23818
 -4.42916
 -1.66161
 4.06433
 -5.14059
 0.385004
 -2.29622
 -3.98597
 2.90022
 -1.21898
 -3.6045
 0.526911
 -5.80647
 -4.9397
 1.24195
 0.8988
 2.72447
 -2.19439
 6.31889
 -2.58055
 -1.46659
 -0.800978
 2.49505
 -4.0255
 1.22622
 -5.4577
 -4.53143
 3.84857
 1.67873
 0.071425
 2.34236
 -1.44439
 1.9407
 -3.07806
 -2.61901
 0.568112
 1.24195
 -5.32517
 3.32477
 3.33669
 -1.46659
 3.06239
 -0.898781
 5.23945
 6.87356
 0.867863
 0.85575
 1.04149
 -3.70467
 -0.0732679
 1.55225
 4.19331
 0.0582012
 -2.79301
 -1.19799
 1.9101
 -2.61901
 -4.9397
 5.9663
 -1.93775
 -3.23818
 -0.800978
 -0.898781
 5.94907
 0.0942455
 -3.91365
 -5.14059
 5.63255
 0.615127
 -0.978031
 0.15979
 -1.75796
 -0.651021
 2.60781
 -5.48895
 0.664463
 -1.19799
 -3.07806
 -5.80647
 -0.631068
 -0.870082
 -4.42916
 2.49505
 5.23945
 0.0942455
 3.99377
 -0.25151
 5.94697
 -5.75117
 5.53133
 1.29997
 0.712953
 1.26166
 -1.93775
 2.90022
 -4.13746
 -5.48895
 -2.79301
 1.9407
 0.526911
 -5.91049
 -5.12589
 -1.66161
 -4.0255
 6.87356
 -3.91365
 -0.25151
 -0.205957
 -4.53143
 3.25015
 6.59734
 6.13147
 -1.29638
 -4.66991
 -4.11044
 2.4382
 2.90022
 2.60781
 0.0582012
 -1.44439
 -3.6045
 0.664463
 -0.0344525
 4.06433
 1.22622
 0.867863
 -5.14059
 5.94697
 -4.53143
 0.348833
 -4.91686
 2.46563
 -0.0726094
 -1.26535
 -2.3647
 -1.5626
 -4.11044
 -1.93775
 -0.651021
 4.19331
 2.34236
 -1.21898
 0.0582012
 -4.88259
 -5.14059
 -5.4577
 0.85575
 5.63255
 -5.75117
 3.25015
 -4.91686
 6.90001
 1.20079
 -2.16684
 3.92118
 0.782219
 -2.3647
 -4.66991
 1.26166
 -1.75796
 1.55225
 0.071425
 2.90022
 1.44621
 5.49832
 0.385004
 -4.53143
 1.04149
 0.615127
 5.53133
 6.59734
 2.46563
 1.20079
 -1.0629
 -1.22282
 0.210834
 3.92118
 -1.26535
 -1.29638
 0.712953
 0.15979
 -0.0732679
 1.67873
 -3.98597
 5.3618
 -2.06742
 -2.29622
 3.84857
 -3.70467
 -0.978031
 1.29997
 6.13147
 -0.0726094
 -2.16684
 -1.22282
 -2.12149
