# vtk DataFile Version 2.0
Ray Path Visualization
ASCII
DATASET POLYDATA

POINTS 3000 float
 0 0 3
 0 1 3
 0 2 3
 0 3 3
 0 4 3
 0 5 3
 0 6 3
 0 7 3
 0 8 3
 0 9 3
 0 10 3
 0 11 3
 0 12 3
 0 13 3
 0 14 3
 0 15 3
 0 16 3
 0 17 3
 0 18 3
 0 19 3
 0 20 3
 0 21 3
 0 22 3
 0 23 3
 0 24 3
 0 25 3
 0 26 3
 0 27 3
 0 28 3
 0 29 3
 0 30 3
 0 31 3
 0 32 3
 0 33 3
 0 34 3
 0 35 3
 0 36 3
 0 37 3
 0 38 3
 0 39 3
 0 40 3
 0 41 3
 0 42 3
 0 43 3
 0 44 3
 0 45 3
 0 46 3
 0 47 3
 0 48 3
 0 49 3
 0 50 3
 0 51 3
 0 52 3
 0 53 3
 0 54 3
 0 55 3
 0 56 3
 0 57 3
 0 58 3
 0 59 3
 0 60 3
 0 61 3
 0 62 3
 0 63 3
 0 64 3
 0 65 3
 0 66 3
 0 67 3
 0 68 3
 0 69 3
 0 70 3
 0 71 3
 0 72 3
 0 73 3
 0 74 3
 0 75 3
 0 76 3
 0 77 3
 0 78 3
 0 79 3
 0 80 3
 0 81 3
 0 82 3
 0 83 3
 0 84 3
 0 85 3
 0 86 3
 0 87 3
 0 88 3
 0 89 3
 0 90 3
 0 91 3
 0 92 3
 0 93 3
 0 94 3
 0 95 3
 0 96 3
 0 97 3
 0 98 3
 0 99 3
 0 100 3
 0 101 3
 0 102 3
 0 103 3
 0 104 3
 0 105 3
 0 106 3
 0 107 3
 0 108 3
 0 109 3
 0 110 3
 0 111 3
 0 112 3
 0 113 3
 0 114 3
 0 115 3
 0 116 3
 0 117 3
 0 118 3
 0 119 3
 0 120 3
 0 121 3
 0 122 3
 0 123 3
 0 124 3
 0 125 3
 0 126 3
 0 127 3
 0 128 3
 0 129 3
 0 130 3
 0 131 3
 0 132 3
 0 133 3
 0 134 3
 0 135 3
 0 136 3
 0 137 3
 0 138 3
 0 139 3
 0 140 3
 0 141 3
 0 142 3
 0 143 3
 0 144 3
 0 145 3
 0 146 3
 0 147 3
 0 148 3
 0 149 3
 0 150 3
 0 151 3
 0 152 3
 0 153 3
 0 154 3
 0 155 3
 0 156 3
 0 157 3
 0 158 3
 0 159 3
 0 160 3
 0 161 3
 0 162 3
 0 163 3
 0 164 3
 0 165 3
 0 166 3
 0 167 3
 0 168 3
 0 169 3
 0 170 3
 0 171 3
 0 172 3
 0 173 3
 0 174 3
 0 175 3
 0 176 3
 0 177 3
 0 178 3
 0 179 3
 0 180 3
 0 181 3
 0 182 3
 0 183 3
 0 184 3
 0 185 3
 0 186 3
 0 187 3
 0 188 3
 0 189 3
 0 190 3
 0 191 3
 0 192 3
 0 193 3
 0 194 3
 0 195 3
 0 196 3
 0 197 3
 0 198 3
 0 199 3
 0 200 3
 0 201 3
 0 202 3
 0 203 3
 0 204 3
 0 205 3
 0 206 3
 0 207 3
 0 208 3
 0 209 3
 0 210 3
 0 211 3
 0 212 3
 0 213 3
 0 214 3
 0 215 3
 0 216 3
 0 217 3
 0 218 3
 0 219 3
 0 220 3
 0 221 3
 0 222 3
 0 223 3
 0 224 3
 0 225 3
 0 226 3
 0 227 3
 0 228 3
 0 229 3
 0 230 3
 0 231 3
 0 232 3
 0 233 3
 0 234 3
 0 235 3
 0 236 3
 0 237 3
 0 238 3
 0 239 3
 0 240 3
 0 241 3
 0 242 3
 0 243 3
 0 244 3
 0 245 3
 0 246 3
 0 247 3
 0 248 3
 0 249 3
 0 250 3
 0 251 3
 0 252 3
 0 253 3
 0 254 3
 0 255 3
 0 256 3
 0 257 3
 0 258 3
 0 259 3
 0 260 3
 0 261 3
 0 262 3
 0 263 3
 0 264 3
 0 265 3
 0 266 3
 0 267 3
 0 268 3
 0 269 3
 0 270 3
 0 271 3
 0 272 3
 0 273 3
 0 274 3
 0 275 3
 0 276 3
 0 277 3
 0 278 3
 0 279 3
 0 280 3
 0 281 3
 0 282 3
 0 283 3
 0 284 3
 0 285 3
 0 286 3
 0 287 3
 0 288 3
 0 289 3
 0 290 3
 0 291 3
 0 292 3
 0 293 3
 0 294 3
 0 295 3
 0 296 3
 0 297 3
 0 298 3
 0 299 3
 0 300 3
 0 301 3
 0 302 3
 0 303 3
 0 304 3
 0 305 3
 0 306 3
 0 307 3
 0 308 3
 0 309 3
 0 310 3
 0 311 3
 0 312 3
 0 313 3
 0 314 3
 0 315 3
 0 316 3
 0 317 3
 0 318 3
 0 319 3
 0 320 3
 0 321 3
 0 322 3
 0 323 3
 0 324 3
 0 325 3
 0 326 3
 0 327 3
 0 328 3
 0 329 3
 0 330 3
 0 331 3
 0 332 3
 0 333 3
 0 334 3
 0 335 3
 0 336 3
 0 337 3
 0 338 3
 0 339 3
 0 340 3
 0 341 3
 0 342 3
 0 343 3
 0 344 3
 0 345 3
 0 346 3
 0 347 3
 0 348 3
 0 349 3
 0 350 3
 0 351 3
 0 352 3
 0 353 3
 0 354 3
 0 355 3
 0 356 3
 0 357 3
 0 358 3
 0 359 3
 0 360 3
 0 361 3
 0 362 3
 0 363 3
 0 364 3
 0 365 3
 0 366 3
 0 367 3
 0 368 3
 0 369 3
 0 370 3
 0 371 3
 0 372 3
 0 373 3
 0 374 3
 0 375 3
 0 376 3
 0 377 3
 0 378 3
 0 379 3
 0 380 3
 0 381 3
 0 382 3
 0 383 3
 0 384 3
 0 385 3
 0 386 3
 0 387 3
 0 388 3
 0 389 3
 0 390 3
 0 391 3
 0 392 3
 0 393 3
 0 394 3
 0 395 3
 0 396 3
 0 397 3
 0 398 3
 0 399 3
 0 400 3
 0 401 3
 0 402 3
 0 403 3
 0 404 3
 0 405 3
 0 406 3
 0 407 3
 0 408 3
 0 409 3
 0 410 3
 0 411 3
 0 412 3
 0 413 3
 0 414 3
 0 415 3
 0 416 3
 0 417 3
 0 418 3
 0 419 3
 0 420 3
 0 421 3
 0 422 3
 0 423 3
 0 424 3
 0 425 3
 0 426 3
 0 427 3
 0 428 3
 0 429 3
 0 430 3
 0 431 3
 0 432 3
 0 433 3
 0 434 3
 0 435 3
 0 436 3
 0 437 3
 0 438 3
 0 439 3
 0 440 3
 0 441 3
 0 442 3
 0 443 3
 0 444 3
 0 445 3
 0 446 3
 0 447 3
 0 448 3
 0 449 3
 0 450 3
 0 451 3
 0 452 3
 0 453 3
 0 454 3
 0 455 3
 0 456 3
 0 457 3
 0 458 3
 0 459 3
 0 460 3
 0 461 3
 0 462 3
 0 463 3
 0 464 3
 0 465 3
 0 466 3
 0 467 3
 0 468 3
 0 469 3
 0 470 3
 0 471 3
 0 472 3
 0 473 3
 0 474 3
 0 475 3
 0 476 3
 0 477 3
 0 478 3
 0 479 3
 0 480 3
 0 481 3
 0 482 3
 0 483 3
 0 484 3
 0 485 3
 0 486 3
 0 487 3
 0 488 3
 0 489 3
 0 490 3
 0 491 3
 0 492 3
 0 493 3
 0 494 3
 0 495 3
 0 496 3
 0 497 3
 0 498 3
 0 499 3
 0 500 3
 0 501 3
 0 502 3
 0 503 3
 0 504 3
 0 505 3
 0 506 3
 0 507 3
 0 508 3
 0 509 3
 0 510 3
 0 511 3
 0 512 3
 0 513 3
 0 514 3
 0 515 3
 0 516 3
 0 517 3
 0 518 3
 0 519 3
 0 520 3
 0 521 3
 0 522 3
 0 523 3
 0 524 3
 0 525 3
 0 526 3
 0 527 3
 0 528 3
 0 529 3
 0 530 3
 0 531 3
 0 532 3
 0 533 3
 0 534 3
 0 535 3
 0 536 3
 0 537 3
 0 538 3
 0 539 3
 0 540 3
 0 541 3
 0 542 3
 0 543 3
 0 544 3
 0 545 3
 0 546 3
 0 547 3
 0 548 3
 0 549 3
 0 550 3
 0 551 3
 0 552 3
 0 553 3
 0 554 3
 0 555 3
 0 556 3
 0 557 3
 0 558 3
 0 559 3
 0 560 3
 0 561 3
 0 562 3
 0 563 3
 0 564 3
 0 565 3
 0 566 3
 0 567 3
 0 568 3
 0 569 3
 0 570 3
 0 571 3
 0 572 3
 0 573 3
 0 574 3
 0 575 3
 0 576 3
 0 577 3
 0 578 3
 0 579 3
 0 580 3
 0 581 3
 0 582 3
 0 583 3
 0 584 3
 0 585 3
 0 586 3
 0 587 3
 0 588 3
 0 589 3
 0 590 3
 0 591 3
 0 592 3
 0 593 3
 0 594 3
 0 595 3
 0 596 3
 0 597 3
 0 598 3
 0 599 3
 0 600 3
 0 601 3
 0 602 3
 0 603 3
 0 604 3
 0 605 3
 0 606 3
 0 607 3
 0 608 3
 0 609 3
 0 610 3
 0 611 3
 0 612 3
 0 613 3
 0 614 3
 0 615 3
 0 616 3
 0 617 3
 0 618 3
 0 619 3
 0 620 3
 0 621 3
 0 622 3
 0 623 3
 0 624 3
 0 625 3
 0 626 3
 0 627 3
 0 628 3
 0 629 3
 0 630 3
 0 631 3
 0 632 3
 0 633 3
 0 634 3
 0 635 3
 0 636 3
 0 637 3
 0 638 3
 0 639 3
 0 640 3
 0 641 3
 0 642 3
 0 643 3
 0 644 3
 0 645 3
 0 646 3
 0 647 3
 0 648 3
 0 649 3
 0 650 3
 0 651 3
 0 652 3
 0 653 3
 0 654 3
 0 655 3
 0 656 3
 0 657 3
 0 658 3
 0 659 3
 0 660 3
 0 661 3
 0 662 3
 0 663 3
 0 664 3
 0 665 3
 0 666 3
 0 667 3
 0 668 3
 0 669 3
 0 670 3
 0 671 3
 0 672 3
 0 673 3
 0 674 3
 0 675 3
 0 676 3
 0 677 3
 0 678 3
 0 679 3
 0 680 3
 0 681 3
 0 682 3
 0 683 3
 0 684 3
 0 685 3
 0 686 3
 0 687 3
 0 688 3
 0 689 3
 0 690 3
 0 691 3
 0 692 3
 0 693 3
 0 694 3
 0 695 3
 0 696 3
 0 697 3
 0 698 3
 0 699 3
 0 700 3
 0 701 3
 0 702 3
 0 703 3
 0 704 3
 0 705 3
 0 706 3
 0 707 3
 0 708 3
 0 709 3
 0 710 3
 0 711 3
 0 712 3
 0 713 3
 0 714 3
 0 715 3
 0 716 3
 0 717 3
 0 718 3
 0 719 3
 0 720 3
 0 721 3
 0 722 3
 0 723 3
 0 724 3
 0 725 3
 0 726 3
 0 727 3
 0 728 3
 0 729 3
 0 730 3
 0 731 3
 0 732 3
 0 733 3
 0 734 3
 0 735 3
 0 736 3
 0 737 3
 0 738 3
 0 739 3
 0 740 3
 0 741 3
 0 742 3
 0 743 3
 0 744 3
 0 745 3
 0 746 3
 0 747 3
 0 748 3
 0 749 3
 0 750 3
 0 751 3
 0 752 3
 0 753 3
 0 754 3
 0 755 3
 0 756 3
 0 757 3
 0 758 3
 0 759 3
 0 760 3
 0 761 3
 0 762 3
 0 763 3
 0 764 3
 0 765 3
 0 766 3
 0 767 3
 0 768 3
 0 769 3
 0 770 3
 0 771 3
 0 772 3
 0 773 3
 0 774 3
 0 775 3
 0 776 3
 0 777 3
 0 778 3
 0 779 3
 0 780 3
 0 781 3
 0 782 3
 0 783 3
 0 784 3
 0 785 3
 0 786 3
 0 787 3
 0 788 3
 0 789 3
 0 790 3
 0 791 3
 0 792 3
 0 793 3
 0 794 3
 0 795 3
 0 796 3
 0 797 3
 0 798 3
 0 799 3
 0 800 3
 0 801 3
 0 802 3
 0 803 3
 0 804 3
 0 805 3
 0 806 3
 0 807 3
 0 808 3
 0 809 3
 0 810 3
 0 811 3
 0 812 3
 0 813 3
 0 814 3
 0 815 3
 0 816 3
 0 817 3
 0 818 3
 0 819 3
 0 820 3
 0 821 3
 0 822 3
 0 823 3
 0 824 3
 0 825 3
 0 826 3
 0 827 3
 0 828 3
 0 829 3
 0 830 3
 0 831 3
 0 832 3
 0 833 3
 0 834 3
 0 835 3
 0 836 3
 0 837 3
 0 838 3
 0 839 3
 0 840 3
 0 841 3
 0 842 3
 0 843 3
 0 844 3
 0 845 3
 0 846 3
 0 847 3
 0 848 3
 0 849 3
 0 850 3
 0 851 3
 0 852 3
 0 853 3
 0 854 3
 0 855 3
 0 856 3
 0 857 3
 0 858 3
 0 859 3
 0 860 3
 0 861 3
 0 862 3
 0 863 3
 0 864 3
 0 865 3
 0 866 3
 0 867 3
 0 868 3
 0 869 3
 0 870 3
 0 871 3
 0 872 3
 0 873 3
 0 874 3
 0 875 3
 0 876 3
 0 877 3
 0 878 3
 0 879 3
 0 880 3
 0 881 3
 0 882 3
 0 883 3
 0 884 3
 0 885 3
 0 886 3
 0 887 3
 0 888 3
 0 889 3
 0 890 3
 0 891 3
 0 892 3
 0 893 3
 0 894 3
 0 895 3
 0 896 3
 0 897 3
 0 898 3
 0 899 3
 0 900 3
 0 901 3
 0 902 3
 0 903 3
 0 904 3
 0 905 3
 0 906 3
 0 907 3
 0 908 3
 0 909 3
 0 910 3
 0 911 3
 0 912 3
 0 913 3
 0 914 3
 0 915 3
 0 916 3
 0 917 3
 0 918 3
 0 919 3
 0 920 3
 0 921 3
 0 922 3
 0 923 3
 0 924 3
 0 925 3
 0 926 3
 0 927 3
 0 928 3
 0 929 3
 0 930 3
 0 931 3
 0 932 3
 0 933 3
 0 934 3
 0 935 3
 0 936 3
 0 937 3
 0 938 3
 0 939 3
 0 940 3
 0 941 3
 0 942 3
 0 943 3
 0 944 3
 0 945 3
 0 946 3
 0 947 3
 0 948 3
 0 949 3
 0 950 3
 0 951 3
 0 952 3
 0 953 3
 0 954 3
 0 955 3
 0 956 3
 0 957 3
 0 958 3
 0 959 3
 0 960 3
 0 961 3
 0 962 3
 0 963 3
 0 964 3
 0 965 3
 0 966 3
 0 967 3
 0 968 3
 0 969 3
 0 970 3
 0 971 3
 0 972 3
 0 973 3
 0 974 3
 0 975 3
 0 976 3
 0 977 3
 0 978 3
 0 979 3
 0 980 3
 0 981 3
 0 982 3
 0 983 3
 0 984 3
 0 985 3
 0 986 3
 0 987 3
 0 988 3
 0 989 3
 0 990 3
 0 991 3
 0 992 3
 0 993 3
 0 994 3
 0 995 3
 0 996 3
 0 997 3
 0 998 3
 0 999 3
 0 1000 3
 0 1001 3
 0 1002 3
 0 1003 3
 0 1004 3
 0 1005 3
 0 1006 3
 0 1007 3
 0 1008 3
 0 1009 3
 0 1010 3
 0 1011 3
 0 1012 3
 0 1013 3
 0 1014 3
 0 1015 3
 0 1016 3
 0 1017 3
 0 1018 3
 0 1019 3
 0 1020 3
 0 1021 3
 0 1022 3
 0 1023 3
 0 1024 3
 0 1025 3
 0 1026 3
 0 1027 3
 0 1028 3
 0 1029 3
 0 1030 3
 0 1031 3
 0 1032 3
 0 1033 3
 0 1034 3
 0 1035 3
 0 1036 3
 0 1037 3
 0 1038 3
 0 1039 3
 0 1040 3
 0 1041 3
 0 1042 3
 0 1043 3
 0 1044 3
 0 1045 3
 0 1046 3
 0 1047 3
 0 1048 3
 0 1049 3
 0 1050 3
 0 1051 3
 0 1052 3
 0 1053 3
 0 1054 3
 0 1055 3
 0 1056 3
 0 1057 3
 0 1058 3
 0 1059 3
 0 1060 3
 0 1061 3
 0 1062 3
 0 1063 3
 0 1064 3
 0 1065 3
 0 1066 3
 0 1067 3
 0 1068 3
 0 1069 3
 0 1070 3
 0 1071 3
 0 1072 3
 0 1073 3
 0 1074 3
 0 1075 3
 0 1076 3
 0 1077 3
 0 1078 3
 0 1079 3
 0 1080 3
 0 1081 3
 0 1082 3
 0 1083 3
 0 1084 3
 0 1085 3
 0 1086 3
 0 1087 3
 0 1088 3
 0 1089 3
 0 1090 3
 0 1091 3
 0 1092 3
 0 1093 3
 0 1094 3
 0 1095 3
 0 1096 3
 0 1097 3
 0 1098 3
 0 1099 3
 0 1100 3
[...]
POINT_DATA 3000
FIELD FieldData 4
ReceiverID 1 3000 int
 0
 1
 2
 3
 4
 5
 6
 7
 8
 9
 10
 11
 12
 13
 14
 15
 16
 17
 18
 19
 20
 21
 22
 23
 24
 25
 26
 27
 28
 29
 30
 31
 32
 33
 34
 35
 36
 37
 38
 39
 40
 41
 42
 43
 44
 45
 46
 47
 48
 49
 50
 51
 52
 53
 54
 55
 56
 57
 58
 59
 60
 61
 62
 63
 64
 65
 66
 67
 68
 69
 70
 71
 72
 73
 74
 75
 76
 77
 78
 79
 80
 81
 82
 83
 84
 85
 86
 87
 88
 89
 90
 91
 92
 93
 94
 95
 96
 97
 98
 99
 100
 101
 102
 103
 104
 105
 106
 107
 108
 109
 110
 111
 112
 113
 114
 115
 116
 117
 118
 119
 120
 121
 122
 123
 124
 125
 126
 127
 128
 129
 130
 131
 132
 133
 134
 135
 136
 137
 138
 139
 140
 141
 142
 143
 144
 145
 146
 147
 148
 149
 150
 151
 152
 153
 154
 155
 156
 157
 158
 159
 160
 161
 162
 163
 164
 165
 166
 167
 168
 169
 170
 171
 172
 173
 174
 175
 176
 177
 178
 179
 180
 181
 182
 183
 184
 185
 186
 187
 188
 189
 190
 191
 192
 193
 194
 195
 196
 197
 198
 199
 200
 201
 202
 203
 204
 205
 206
 207
 208
 209
 210
 211
 212
 213
 214
 215
 216
 217
 218
 219
 220
 221
 222
 223
 224
 225
 226
 227
 228
 229
 230
 231
 232
 233
 234
 235
 236
 237
 238
 239
 240
 241
 242
 243
 244
 245
 246
 247
 248
 249
 250
 251
 252
 253
 254
 255
 256
 257
 258
 259
 260
 261
 262
 263
 264
 265
 266
 267
 268
 269
 270
 271
 272
 273
 274
 275
 276
 277
 278
 279
 280
 281
 282
 283
 284
 285
 286
 287
 288
 289
 290
 291
 292
 293
 294
 295
 296
 297
 298
 299
 300
 301
 302
 303
 304
 305
 306
 307
 308
 309
 310
 311
 312
 313
 314
 315
 316
 317
 318
 319
 320
 321
 322
 323
 324
 325
 326
 327
 328
 329
 330
 331
 332
 333
 334
 335
 336
 337
 338
 339
 340
 341
 342
 343
 344
 345
 346
 347
 348
 349
 350
 351
 352
 353
 354
 355
 356
 357
 358
 359
 360
 361
 362
 363
 364
 365
 366
 367
 368
 369
 370
 371
 372
 373
 374
 375
 376
 377
 378
 379
 380
 381
 382
 383
 384
 385
 386
 387
 388
 389
 390
 391
 392
 393
 394
 395
 396
 397
 398
 399
 400
 401
 402
 403
 404
 405
 406
 407
 408
 409
 410
 411
 412
 413
 414
 415
 416
 417
 418
 419
 420
 421
 422
 423
 424
 425
 426
 427
 428
 429
 430
 431
 432
 433
 434
 435
 436
 437
 438
 439
 440
 441
 442
 443
 444
 445
 446
 447
 448
 449
 450
 451
 452
 453
 454
 455
 456
 457
 458
 459
 460
 461
 462
 463
 464
 465
 466
 467
 468
 469
 470
 471
 472
 473
 474
 475
 476
 477
 478
 479
 480
 481
 482
 483
 484
 485
 486
 487
 488
 489
 490
 491
 492
 493
 494
 495
 496
 497
 498
 499
 500
 501
 502
 503
 504
 505
 506
 507
 508
 509
 510
 511
 512
 513
 514
 515
 516
 517
 518
 519
 520
 521
 522
 523
 524
 525
 526
 527
 528
 529
 530
 531
 532
 533
 534
 535
 536
 537
 538
 539
 540
 541
 542
 543
 544
 545
 546
 547
 548
 549
 550
 551
 552
 553
 554
 555
 556
 557
 558
 559
 560
 561
 562
 563
 564
 565
 566
 567
 568
 569
 570
 571
 572
 573
 574
 575
 576
 577
 578
 579
 580
 581
 582
 583
 584
 585
 586
 587
 588
 589
 590
 591
 592
 593
 594
 595
 596
 597
 598
 599
 600
 601
 602
 603
 604
 605
 606
 607
 608
 609
 610
 611
 612
 613
 614
 615
 616
 617
 618
 619
 620
 621
 622
 623
 624
 625
 626
 627
 628
 629
 630
 631
 632
 633
 634
 635
 636
 637
 638
 639
 640
 641
 642
 643
 644
 645
 646
 647
 648
 649
 650
 651
 652
 653
 654
 655
 656
 657
 658
 659
 660
 661
 662
 663
 664
 665
 666
 667
 668
 669
 670
 671
 672
 673
 674
 675
 676
 677
 678
 679
 680
 681
 682
 683
 684
 685
 686
 687
 688
 689
 690
 691
 692
 693
 694
 695
 696
 697
 698
 699
 700
 701
 702
 703
 704
 705
 706
 707
 708
 709
 710
 711
 712
 713
 714
 715
 716
 717
 718
 719
 720
 721
 722
 723
 724
 725
 726
 727
 728
 729
 730
 731
 732
 733
 734
 735
 736
 737
 738
 739
 740
 741
 742
 743
 744
 745
 746
 747
 748
 749
 750
 751
 752
 753
 754
 755
 756
 757
 758
 759
 760
 761
 762
 763
 764
 765
 766
 767
 768
 769
 770
 771
 772
 773
 774
 775
 776
 777
 778
 779
 780
 781
 782
 783
 784
 785
 786
 787
 788
 789
 790
 791
 792
 793
 794
 795
 796
 797
 798
 799
 800
 801
 802
 803
 804
 805
 806
 807
 808
 809
 810
 811
 812
 813
 814
 815
 816
 817
 818
 819
 820
 821
 822
 823
 824
 825
 826
 827
 828
 829
 830
 831
 832
 833
 834
 835
 836
 837
 838
 839
 840
 841
 842
 843
 844
 845
 846
 847
 848
 849
 850
 851
 852
 853
 854
 855
 856
 857
 858
 859
 860
 861
 862
 863
 864
 865
 866
 867
 868
 869
 870
 871
 872
 873
 874
 875
 876
 877
 878
 879
 880
 881
 882
 883
 884
 885
 886
 887
 888
 889
 890
 891
 892
 893
 894
 895
 896
 897
 898
 899
 900
 901
 902
 903
 904
 905
 906
 907
 908
 909
 910
 911
 912
 913
 914
 915
 916
 917
 918
 919
 920
 921
 922
 923
 924
 925
 926
 927
 928
 929
 930
 931
 932
 933
 934
 935
 936
 937
 938
 939
 940
 941
 942
 943
 944
 945
 946
 947
 948
 949
 950
 951
 952
 953
 954
 955
 956
 957
 958
 959
 960
 961
 962
 963
 964
 965
 966
 967
 968
 969
 970
 971
 972
 973
 974
 975
 976
 977
 978
 979
 980
 981
 982
 983
 984
 985
 986
 987
 988
 989
 990
 991
 992
 993
 994
 995
 996
 997
 998
 999
 1000
 1001
 1002
 1003
 1004
 1005
 1006
 1007
 1008
 1009
 1010
 1011
 1012
 1013
 1014
 1015
 1016
 1017
 1018
 1019
 1020
 1021
 1022
 1023
 1024
 1025
 1026
 1027
 1028
 1029
 1030
 1031
 1032
 1033
 1034
 1035
 1036
 1037
 1038
 1039
 1040
 1041
 1042
 1043
 1044
 1045
 1046
 1047
 1048
 1049
 1050
 1051
 1052
 1053
 1054
 1055
 1056
 1057
 1058
 1059
 1060
 1061
 1062
 1063
 1064
 1065
 1066
 1067
 1068
 1069
 1070
 1071
 1072
 1073
 1074
 1075
 1076
 1077
 1078
 1079
 1080
 1081
 1082
 1083
 1084
 1085
 1086
 1087
 1088
 1089
 1090
 1091
 1092
 1093
 1094
 1095
 1096
 1097
 1098
 1099
 1100
 1101
 1102
 1103
 1104
 1105
 1106
 1107
 1108
 1109
 1110
 1111
 1112
 1113
 1114
 1115
 1116
 1117
 1118
 1119
 1120
 1121
 1122
 1123
 1124
 1125
 1126
 1127
 1128
 1129
 1130
 1131
 1132
 1133
 1134
 1135
 1136
 1137
 1138
 1139
 1140
 1141
 1142
 1143
 1144
 1145
 1146
 1147
 1148
 1149
 1150
 1151
 1152
 1153
 1154
 1155
 1156
 1157
 1158
 1159
 1160
 1161
 1162
 1163
 1164
 1165
 1166
 1167
 1168
 1169
 1170
 1171
 1172
 1173
 1174
 1175
 1176
 1177
 1178
 1179
 1180
 1181
 1182
 1183
 1184
 1185
 1186
 1187
 1188
 1189
 1190
 1191
 1192
 1193
 1194
 1195
 1196
 1197
 1198
 1199
 1200
 1201
 1202
 1203
 1204
 1205
 1206
 1207
 1208
 1209
 1210
 1211
 1212
 1213
 1214
 1215
 1216
 1217
 1218
 1219
 1220
 1221
 1222
 1223
 1224
 1225
 1226
 1227
 1228
 1229
 1230
 1231
 1232
 1233
 1234
 1235
 1236
 1237
 1238
 1239
 1240
 1241
 1242
 1243
 1244
 1245
 1246
 1247
 1248
 1249
 1250
 1251
 1252
 1253
 1254
 1255
 1256
 1257
 1258
 1259
 1260
 1261
 1262
 1263
 1264
 1265
 1266
 1267
 1268
 1269
 1270
 1271
 1272
 1273
 1274
 1275
 1276
 1277
 1278
 1279
 1280
 1281
 1282
 1283
 1284
 1285
 1286
 1287
 1288
 1289
 1290
 1291
 1292
 1293
 1294
 1295
 1296
 1297
 1298
 1299
 1300
 1301
 1302
 1303
 1304
 1305
 1306
 1307
 1308
 1309
 1310
 1311
 1312
 1313
 1314
 1315
 1316
 1317
 1318
 1319
 1320
 1321
 1322
 1323
 1324
 1325
 1326
 1327
 1328
 1329
 1330
 1331
 1332
 1333
 1334
 1335
 1336
 1337
 1338
 1339
 1340
 1341
 1342
 1343
 1344
 1345
 1346
 1347
 1348
 1349
 1350
 1351
 1352
 1353
 1354
 1355
 1356
 1357
 1358
 1359
 1360
 1361
 1362
 1363
 1364
 1365
 1366
 1367
 1368
 1369
 1370
 1371
 1372
 1373
 1374
 1375
 1376
 1377
 1378
 1379
 1380
 1381
 1382
 1383
 1384
 1385
 1386
 1387
 1388
 1389
 1390
 1391
 1392
 1393
 1394
 1395
 1396
 1397
 1398
 1399
 1400
 1401
 1402
 1403
 1404
 1405
 1406
 1407
 1408
 1409
 1410
 1411
 1412
 1413
 1414
 1415
 1416
 1417
 1418
 1419
 1420
 1421
 1422
 1423
 1424
 1425
 1426
 1427
 1428
 1429
 1430
 1431
 1432
 1433
 1434
 1435
 1436
 1437
 1438
 1439
 1440
 1441
 1442
 1443
 1444
 1445
 1446
 1447
 1448
 1449
 1450
 1451
 1452
 1453
 1454
 1455
 1456
 1457
 1458
 1459
 1460
 1461
 1462
 1463
 1464
 1465
 1466
 1467
 1468
 1469
 1470
 1471
 1472
 1473
 1474
 1475
 1476
 1477
 1478
 1479
 1480
 1481
 1482
 1483
 1484
 1485
 1486
 1487
 1488
 1489
 1490
 1491
 1492
 1493
 1494
 1495
 1496
 1497
 1498
 1499
 1500
 1501
 1502
 1503
 1504
 1505
 1506
 1507
 1508
 1509
 1510
 1511
 1512
 1513
 1514
 1515
 1516
 1517
 1518
 1519
 1520
 1521
 1522
 1523
 1524
 1525
 1526
 1527
 1528
 1529
 1530
 1531
 1532
 1533
 1534
 1535
 1536
 1537
 1538
 1539
 1540
 1541
 1542
 1543
 1544
 1545
 1546
 1547
 1548
 1549
 1550
 1551
 1552
 1553
 1554
 1555
 1556
 1557
 1558
 1559
 1560
 1561
 1562
 1563
 1564
 1565
 1566
 1567
 1568
 1569
 1570
 1571
 1572
 1573
 1574
 1575
 1576
 1577
 1578
 1579
 1580
 1581
 1582
 1583
 1584
 1585
 1586
 1587
 1588
 1589
 1590
 1591
 1592
 1593
 1594
 1595
 1596
 1597
 1598
 1599
 1600
 1601
 1602
 1603
 1604
 1605
 1606
 1607
 1608
 1609
 1610
 1611
 1612
 1613
 1614
 1615
 1616
 1617
 1618
 1619
 1620
 1621
 1622
 1623
 1624
 1625
 1626
 1627
 1628
 1629
 1630
 1631
 1632
 1633
 1634
 1635
 1636
 1637
 1638
 1639
 1640
 1641
 1642
 1643
 1644
 1645
 1646
 1647
 1648
 1649
 1650
 1651
 1652
 1653
 1654
 1655
 1656
 1657
 1658
 1659
 1660
 1661
 1662
 1663
 1664
 1665
 1666
 1667
 1668
 1669
 1670
 1671
 1672
 1673
 1674
 1675
 1676
 1677
 1678
 1679
 1680
 1681
 1682
 1683
 1684
 1685
 1686
 1687
 1688
 1689
 1690
 1691
 1692
 1693
 1694
 1695
 1696
 1697
 1698
 1699
 1700
 1701
 1702
 1703
 1704
 1705
 1706
 1707
 1708
 1709
 1710
 1711
 1712
 1713
 1714
 1715
 1716
 1717
 1718
 1719
 1720
 1721
 1722
 1723
 1724
 1725
 1726
 1727
 1728
 1729
 1730
 1731
 1732
 1733
 1734
 1735
 1736
 1737
 1738
 1739
 1740
 1741
 1742
 1743
 1744
 1745
 1746
 1747
 1748
 1749
 1750
 1751
 1752
 1753
 1754
 1755
 1756
 1757
 1758
 1759
 1760
 1761
 1762
 1763
 1764
 1765
 1766
 1767
 1768
 1769
 1770
 1771
 1772
 1773
 1774
 1775
 1776
 1777
 1778
 1779
 1780
 1781
 1782
 1783
 1784
 1785
 1786
 1787
 1788
 1789
 1790
 1791
 1792
 1793
 1794
 1795
 1796
 1797
 1798
 1799
 1800
 1801
 1802
 1803
 1804
 1805
 1806
 1807
 1808
 1809
 1810
 1811
 1812
 1813
 1814
 1815
 1816
 1817
 1818
 1819
 1820
 1821
 1822
 1823
 1824
 1825
 1826
 1827
 1828
 1829
 1830
 1831
 1832
 1833
 1834
 1835
 1836
 1837
 1838
 1839
 1840
 1841
 1842
 1843
 1844
 1845
 1846
 1847
 1848
 1849
 1850
 1851
 1852
 1853
 1854
 1855
 1856
 1857
 1858
 1859
 1860
 1861
 1862
 1863
 1864
 1865
 1866
 1867
 1868
 1869
 1870
 1871
 1872
 1873
 1874
 1875
 1876
 1877
 1878
 1879
 1880
 1881
 1882
 1883
 1884
 1885
 1886
 1887
 1888
 1889
 1890
 1891
 1892
 1893
 1894
 1895
 1896
 1897
 1898
 1899
 1900
 1901
 1902
 1903
 1904
 1905
 1906
 1907
 1908
 1909
 1910
 1911
 1912
 1913
 1914
 1915
 1916
 1917
 1918
 1919
 1920
 1921
 1922
 1923
 1924
 1925
 1926
 1927
 1928
 1929
 1930
 1931
 1932
 1933
 1934
 1935
 1936
 1937
 1938
 1939
 1940
 1941
 1942
 1943
 1944
 1945
 1946
 1947
 1948
 1949
 1950
 1951
 1952
 1953
 1954
 1955
 1956
 1957
 1958
 1959
 1960
 1961
 1962
 1963
 1964
 1965
 1966
 1967
 1968
 1969
 1970
 1971
 1972
 1973
 1974
 1975
 1976
 1977
 1978
 1979
 1980
 1981
 1982
 1983
 1984
 1985
 1986
 1987
 1988
 1989
 1990
 1991
 1992
 1993
 1994
 1995
 1996
 1997
 1998
 1999
 2000
 2001
 2002
 2003
 2004
 2005
 2006
 2007
 2008
 2009
 2010
 2011
 2012
 2013
 2014
 2015
 2016
 2017
 2018
 2019
 2020
 2021
 2022
 2023
 2024
 2025
 2026
 2027
 2028
 2029
 2030
 2031
 2032
 2033
 2034
 2035
 2036
 2037
 2038
 2039
 2040
 2041
 2042
 2043
 2044
 2045
 2046
 2047
 2048
 2049
 2050
 2051
 2052
 2053
 2054
 2055
 2056
 2057
 2058
 2059
 2060
 2061
 2062
 2063
 2064
 2065
 2066
 2067
 2068
 2069
 2070
 2071
 2072
 2073
 2074
 2075
 2076
 2077
 2078
 2079
 2080
 2081
 2082
 2083
 2084
 2085
 2086
 2087
 2088
 2089
 2090
 2091
 2092
 2093
 2094
 2095
 2096
 2097
 2098
 2099
 2100
 2101
 2102
 2103
 2104
 2105
 2106
 2107
 2108
 2109
 2110
 2111
 2112
 2113
 2114
 2115
 2116
 2117
 2118
 2119
 2120
 2121
 2122
 2123
 2124
 2125
 2126
 2127
 2128
 2129
 2130
 2131
 2132
 2133
 2134
 2135
 2136
 2137
 2138
 2139
 2140
 2141
 2142
 2143
 2144
 2145
 2146
 2147
 2148
 2149
 2150
 2151
 2152
 2153
 2154
 2155
 2156
 2157
 2158
 2159
 2160
 2161
 2162
 2163
 2164
 2165
 2166
 2167
 2168
 2169
 2170
 2171
 2172
 2173
 2174
 2175
 2176
 2177
 2178
 2179
 2180
 2181
 2182
 2183
 2184
 2185
 2186
 2187
 2188
 2189
 2190
 2191
 2192
 2193
 2194
 2195
 2196
 2197
 2198
 2199
 2200
 2201
 2202
 2203
 2204
 2205
 2206
 2207
 2208
 2209
 2210
 2211
 2212
 2213
 2214
 2215
 2216
 2217
 2218
 2219
 2220
 2221
 2222
 2223
 2224
 2225
 2226
 2227
 2228
 2229
 2230
 2231
 2232
 2233
 2234
 2235
 2236
 2237
 2238
 2239
 2240
 2241
 2242
 2243
 2244
 2245
 2246
 2247
 2248
 2249
 2250
 2251
 2252
 2253
 2254
 2255
 2256
 2257
 2258
 2259
 2260
 2261
 2262
 2263
 2264
 2265
 2266
 2267
 2268
 2269
 2270
 2271
 2272
 2273
 2274
 2275
 2276
 2277
 2278
 2279
 2280
 2281
 2282
 2283
 2284
 2285
 2286
 2287
 2288
 2289
 2290
 2291
 2292
 2293
 2294
 2295
 2296
 2297
 2298
 2299
 2300
 2301
 2302
 2303
 2304
 2305
 2306
 2307
 2308
 2309
 2310
 2311
 2312
 2313
 2314
 2315
 2316
 2317
 2318
 2319
 2320
 2321
 2322
 2323
 2324
 2325
 2326
 2327
 2328
 2329
 2330
 2331
 2332
 2333
 2334
 2335
 2336
 2337
 2338
 2339
 2340
 2341
 2342
 2343
 2344
 2345
 2346
 2347
 2348
 2349
 2350
 2351
 2352
 2353
 2354
 2355
 2356
 2357
 2358
 2359
 2360
 2361
 2362
 2363
 2364
 2365
 2366
 2367
 2368
 2369
 2370
 2371
 2372
 2373
 2374
 2375
 2376
 2377
 2378
 2379
 2380
 2381
 2382
 2383
 2384
 2385
 2386
 2387
 2388
 2389
 2390
 2391
 2392
 2393
 2394
 2395
 2396
 2397
 2398
 2399
 2400
 2401
 2402
 2403
 2404
 2405
 2406
 2407
 2408
 2409
 2410
 2411
 2412
 2413
 2414
 2415
 2416
 2417
 2418
 2419
 2420
 2421
 2422
 2423
 2424
 2425
 2426
 2427
 2428
 2429
 2430
 2431
 2432
 2433
 2434
 2435
 2436
 2437
 2438
 2439
 2440
 2441
 2442
 2443
 2444
 2445
 2446
 2447
 2448
 2449
 2450
 2451
 2452
 2453
 2454
 2455
 2456
 2457
 2458
 2459
 2460
 2461
 2462
 2463
 2464
 2465
 2466
 2467
 2468
 2469
 2470
 2471
 2472
 2473
 2474
 2475
 2476
 2477
 2478
 2479
 2480
 2481
 2482
 2483
 2484
 2485
 2486
 2487
 2488
 2489
 2490
 2491
 2492
 2493
 2494
 2495
 2496
 2497
 2498
 2499
 2500
 2501
 2502
 2503
 2504
 2505
 2506
 2507
 2508
 2509
 2510
 2511
 2512
 2513
 2514
 2515
 2516
 2517
 2518
 2519
 2520
 2521
 2522
 2523
 2524
 2525
 2526
 2527
 2528
 2529
 2530
 2531
 2532
 2533
 2534
 2535
 2536
 2537
 2538
 2539
 2540
 2541
 2542
 2543
 2544
 2545
 2546
 2547
 2548
 2549
 2550
 2551
 2552
 2553
 2554
 2555
 2556
 2557
 2558
 2559
 2560
 2561
 2562
 2563
 2564
 2565
 2566
 2567
 2568
 2569
 2570
 2571
 2572
 2573
 2574
 2575
 2576
 2577
 2578
 2579
 2580
 2581
 2582
 2583
 2584
 2585
 2586
 2587
 2588
 2589
 2590
 2591
 2592
 2593
 2594
 2595
 2596
 2597
 2598
 2599
 2600
 2601
 2602
 2603
 2604
 2605
 2606
 2607
 2608
 2609
 2610
 2611
 2612
 2613
 2614
 2615
 2616
 2617
 2618
 2619
 2620
 2621
 2622
 2623
 2624
 2625
 2626
 2627
 2628
 2629
 2630
 2631
 2632
 2633
 2634
 2635
 2636
 2637
 2638
 2639
 2640
 2641
 2642
 2643
 2644
 2645
 2646
 2647
 2648
 2649
 2650
 2651
 2652
 2653
 2654
 2655
 2656
 2657
 2658
 2659
 2660
 2661
 2662
 2663
 2664
 2665
 2666
 2667
 2668
 2669
 2670
 2671
 2672
 2673
 2674
 2675
 2676
 2677
 2678
 2679
 2680
 2681
 2682
 2683
 2684
 2685
 2686
 2687
 2688
 2689
 2690
 2691
 2692
 2693
 2694
 2695
 2696
 2697
 2698
 2699
 2700
 2701
 2702
 2703
 2704
 2705
 2706
 2707
 2708
 2709
 2710
 2711
 2712
 2713
 2714
 2715
 2716
 2717
 2718
 2719
 2720
 2721
 2722
 2723
 2724
 2725
 2726
 2727
 2728
 2729
 2730
 2731
 2732
 2733
 2734
 2735
 2736
 2737
 2738
 2739
 2740
 2741
 2742
 2743
 2744
 2745
 2746
 2747
 2748
 2749
 2750
 2751
 2752
 2753
 2754
 2755
 2756
 2757
 2758
 2759
 2760
 2761
 2762
 2763
 2764
 2765
 2766
 2767
 2768
 2769
 2770
 2771
 2772
 2773
 2774
 2775
 2776
 2777
 2778
 2779
 2780
 2781
 2782
 2783
 2784
 2785
 2786
 2787
 2788
 2789
 2790
 2791
 2792
 2793
 2794
 2795
 2796
 2797
 2798
 2799
 2800
 2801
 2802
 2803
 2804
 2805
 2806
 2807
 2808
 2809
 2810
 2811
 2812
 2813
 2814
 2815
 2816
 2817
 2818
 2819
 2820
 2821
 2822
 2823
 2824
 2825
 2826
 2827
 2828
 2829
 2830
 2831
 2832
 2833
 2834
 2835
 2836
 2837
 2838
 2839
 2840
 2841
 2842
 2843
 2844
 2845
 2846
 2847
 2848
 2849
 2850
 2851
 2852
 2853
 2854
 2855
 2856
 2857
 2858
 2859
 2860
 2861
 2862
 2863
 2864
 2865
 2866
 2867
 2868
 2869
 2870
 2871
 2872
 2873
 2874
 2875
 2876
 2877
 2878
 2879
 2880
 2881
 2882
 2883
 2884
 2885
 2886
 2887
 2888
 2889
 2890
 2891
 2892
 2893
 2894
 2895
 2896
 2897
 2898
 2899
 2900
 2901
 2902
 2903
 2904
 2905
 2906
 2907
 2908
 2909
 2910
 2911
 2912
 2913
 2914
 2915
 2916
 2917
 2918
 2919
 2920
 2921
 2922
 2923
 2924
 2925
 2926
 2927
 2928
 2929
 2930
 2931
 2932
 2933
 2934
 2935
 2936
 2937
 2938
 2939
 2940
 2941
 2942
 2943
 2944
 2945
 2946
 2947
 2948
 2949
 2950
 2951
 2952
 2953
 2954
 2955
 2956
 2957
 2958
 2959
 2960
 2961
 2962
 2963
 2964
 2965
 2966
 2967
 2968
 2969
 2970
 2971
 2972
 2973
 2974
 2975
 2976
 2977
 2978
 2979
 2980
 2981
 2982
 2983
 2984
 2985
 2986
 2987
 2988
 2989
 2990
 2991
 2992
 2993
 2994
 2995
 2996
 2997
 2998
 2999
Eabs 1 3000 double
 4.74342
 3.07754
 4.48958
 3.39844
 1.71667
 2.3266
 0.748342
 0.861432
 1.92438
 0.396645
 1.46669
 1.53556
 1.42023
 1.14123
 0.387551
 0.732073
 1.07277
 0.12095
 1.00139
 0.210639
 0.811113
 0.652103
 0.215019
 0.765766
 0.615336
 0.0461543
 0.485435
 0.685574
 0.535745
 0.179793
 0.20206
 0.47429
 0.579253
 0.523588
 0.353335
 0.127986
 0.0985984
 0.285882
 0.412091
 0.470253
 0.464987
 0.408061
 0.31454
 0.199884
 0.0780488
 0.0398603
 0.144942
 0.232045
 0.298156
 0.342419
 0.365575
 0.36948
 0.356694
 0.330137
 0.292829
 0.247699
 0.197451
 0.14449
 0.090879
 0.0383338
 0.0119003
 0.058513
 0.100956
 0.138676
 0.171382
 0.198961
 0.221449
 0.238994
 0.25183
 0.260256
 0.264613
 0.26527
 0.262607
 0.257005
 0.248842
 0.238479
 0.22626
 0.212509
 0.197526
 0.181586
 0.164939
 0.14781
 0.130401
 0.11289
 0.0954326
 0.0781647
 0.0612028
 0.0446458
 0.0285765
 0.013065
 0.00188708
 0.0161016
 0.029665
 0.0425208
 0.054653
 0.0660538
 0.0767213
 0.0866594
 0.0958764
 0.104384
 0.112199
 0.119338
 0.125822
 0.131673
 0.136913
 0.141568
 0.145662
 0.149221
 0.152269
 0.154833
 0.156937
 0.158607
 0.159867
 0.160741
 0.161253
 0.161424
 0.161278
 0.160835
 0.160115
 0.159139
 0.157925
 0.156491
 0.154854
 0.153031
 0.151037
 0.148886
 0.146594
 0.144173
 0.141635
 0.138993
 0.136258
 0.133441
 0.13055
 0.127596
 0.0707894
 0.0702651
 0.0697486
 0.0692396
 0.0687379
 0.0682435
 0.0677562
 0.0672757
 0.0668021
 0.066335
 0.0658744
 0.0654202
 0.0649722
 0.0645303
 0.0640944
 0.0636643
 0.0632399
 0.0628212
 0.062408
 0.0620001
 0.0615976
 0.0612003
 0.060808
 0.0604208
 0.0600384
 0.0596609
 0.0592881
 0.0589199
 0.0585562
 0.058197
 0.0578422
 0.0574917
 0.0571454
 0.0568033
 0.0564652
 0.0561312
 0.055801
 0.0554748
 0.0551523
 0.0548335
 0.0545184
 0.0542069
 0.053899
 0.0535945
 0.0532935
 0.0529958
 0.0527014
 0.0524102
 0.0521223
 0.0518375
 0.0515558
 0.0512772
 0.0510015
 0.0507288
 0.050459
 0.0501921
 0.0499279
 0.0496666
 0.0494079
 0.0491519
 0.0488986
 0.0486479
 0.0483997
 0.048154
 0.0479109
 0.0476701
 0.0474318
 0.0471958
 0.0469622
 0.0467309
 0.0465018
 0.046275
 0.0460504
 0.045828
 0.0456077
 0.0453895
 0.0451733
 0.0449593
 0.0447472
 0.0445372
 0.0443291
 0.0441229
 0.0439186
 0.0437163
 0.0435158
 0.0433171
 0.0431202
 0.0429251
 0.0427317
 0.0425401
 0.0423502
 0.042162
 0.0419755
 0.0417906
 0.0416073
 0.0414256
 0.0412455
 0.041067
 0.04089
 0.0407145
 0.0405405
 0.040368
 0.040197
 0.0400274
 0.0398592
 0.0396925
 0.0395271
 0.0393631
 0.0392005
 0.0390391
 0.0388792
 0.0387205
 0.0385631
 0.038407
 0.0382521
 0.0380985
 0.0379461
 0.0377949
 0.037645
 0.0374962
 0.0373486
 0.0372021
 0.0370568
 0.0369126
 0.0367696
 0.0366276
 0.0364867
 0.036347
 0.0362082
 0.0360706
 0.0359339
 0.0357984
 0.0356638
 0.0355302
 0.0353976
 0.0352661
 0.0351355
 0.0350058
 0.0348771
 0.0347494
 0.0346226
 0.0344967
 0.0343717
 0.0342476
 0.0341244
 0.0340021
 0.0338807
 0.0337601
 0.0336404
 0.0335215
 0.0334035
 0.0332863
 0.0331699
 0.0330544
 0.0329396
 0.0328256