# vtk DataFile Version 2.0
Ray Path Visualization
ASCII
DATASET POLYDATA

POINTS 145 float
 0 455 3
 0 456 3
 0 457 3
 0 458 3
 0 459 3
 0 460 3
 0 461 3
 0 462 3
 0 463 3
 0 464 3
 0 465 3
 0 466 3
 0 467 3
 0 468 3
 0 469 3
 0 470 3
 0 471 3
 0 472 3
 0 473 3
 0 474 3
 0 475 3
 0 476 3
 0 477 3
 0 478 3
 0 479 3
 0 480 3
 0 481 3
 0 482 3
 0 483 3
 0 484 3
 0 485 3
 0 486 3
 0 487 3
 0 488 3
 0 489 3
 0 490 3
 0 491 3
 0 492 3
 0 493 3
 0 494 3
 0 495 3
 0 496 3
 0 497 3
 0 498 3
 0 499 3
 0 500 3
 0 501 3
 0 502 3
 0 503 3
 0 504 3
 0 505 3
 0 506 3
 0 507 3
 0 508 3
 0 509 3
 0 510 3
 0 511 3
 0 512 3
 0 513 3
 0 514 3
 0 515 3
 0 516 3
 0 517 3
 0 518 3
 0 519 3
 0 520 3
 0 521 3
 0 522 3
 0 523 3
 0 524 3
 0 525 3
 0 526 3
 0 527 3
 0 528 3
 0 529 3
 0 530 3
 0 531 3
 0 532 3
 0 533 3
 0 534 3
 0 535 3
 0 536 3
 0 537 3
 0 538 3
 0 539 3
 0 540 3
 0 541 3
 0 542 3
 0 543 3
 0 544 3
 0 545 3
 0 546 3
 0 547 3
 0 548 3
 0 549 3
 0 550 3
 0 551 3
 0 552 3
 0 553 3
 0 554 3
 0 555 3
 0 556 3
 0 557 3
 0 558 3
 0 559 3
 0 560 3
 0 561 3
 0 562 3
 0 563 3
 0 564 3
 0 565 3
 0 566 3
 0 567 3
 0 568 3
 0 569 3
 0 570 3
 0 571 3
 0 572 3
 0 573 3
 0 574 3
 0 575 3
 0 576 3
 0 577 3
 0 578 3
 0 579 3
 0 580 3
 0 581 3
 0 582 3
 0 583 3
 0 584 3
 0 585 3
 0 586 3
 0 587 3
 0 588 3
 0 589 3
 0 590 3
 0 591 3
 0 592 3
 0 593 3
 0 594 3
 0 595 3
 0 596 3
 0 597 3
 0 598 3
 0 599 3
VERTICES 1 146
145
 0 1 2 3 4
 5 6 7 8 9
 10 11 12 13 14
 15 16 17 18 19
 20 21 22 23 24
 25 26 27 28 29
 30 31 32 33 34
 35 36 37 38 39
 40 41 42 43 44
 45 46 47 48 49
 50 51 52 53 54
 55 56 57 58 59
 60 61 62 63 64
 65 66 67 68 69
 70 71 72 73 74
 75 76 77 78 79
 80 81 82 83 84
 85 86 87 88 89
 90 91 92 93 94
 95 96 97 98 99
 100 101 102 103 104
 105 106 107 108 109
 110 111 112 113 114
 115 116 117 118 119
 120 121 122 123 124
 125 126 127 128 129
 130 131 132 133 134
 135 136 137 138 139
 140 141 142 143 144

POINT_DATA 145
FIELD FieldData 4
ReceiverID 1 145 int
 0
 1
 2
 3
 4
 5
 6
 7
 8
 9
 10
 11
 12
 13
 14
 15
 16
 17
 18
 19
 20
 21
 22
 23
 24
 25
 26
 27
 28
 29
 30
 31
 32
 33
 34
 35
 36
 37
 38
 39
 40
 41
 42
 43
 44
 45
 46
 47
 48
 49
 50
 51
 52
 53
 54
 55
 56
 57
 58
 59
 60
 61
 62
 63
 64
 65
 66
 67
 68
 69
 70
 71
 72
 73
 74
 75
 76
 77
 78
 79
 80
 81
 82
 83
 84
 85
 86
 87
 88
 89
 90
 91
 92
 93
 94
 95
 96
 97
 98
 99
 100
 101
 102
 103
 104
 105
 106
 107
 108
 109
 110
 111
 112
 113
 114
 115
 116
 117
 118
 119
 120
 121
 122
 123
 124
 125
 126
 127
 128
 129
 130
 131
 132
 133
 134
 135
 136
 137
 138
 139
 140
 141
 142
 143
 144
Eabs 1 145 double
 0.0208498
 0.0208041
 0.0207585
 0.0207132
 0.0206681
 0.0206232
 0.0205784
 0.0205339
 0.0204895
 0.0204454
 0.0204014
 0.0203576
 0.020314
 0.0202706
 0.0202274
 0.0201844
 0.0201415
 0.0200989
 0.0200564
 0.0200141
 0.0199719
 0.01993
 0.0198882
 0.0198466
 0.0198052
 0.0197639
 0.0197228
 0.0196819
 0.0196411
 0.0196006
 0.0195601
 0.0195199
 0.0194798
 0.0194399
 0.0194002
 0.0193606
 0.0193211
 0.0192819
 0.0192428
 0.0192038
 0.019165
 0.0191264
 0.0190879
 0.0190496
 0.0190114
 0.0189734
 0.0189355
 0.0188978
 0.0188602
 0.0188228
 0.0187855
 0.0187484
 0.0187114
 0.0186746
 0.0186379
 0.0186013
 0.0185649
 0.0185287
 0.0184926
 0.0184566
 0.0184208
 0.0183851
 0.0183495
 0.0183141
 0.0182788
 0.0182436
 0.0182086
 0.0181737
 0.018139
 0.0181044
 0.0180699
 0.0180355
 0.0180013
 0.0179672
 0.0179333
 0.0178994
 0.0178657
 0.0178321
 0.0177987
 0.0177654
 0.0177322
 0.0176991
 0.0176661
 0.0176333
 0.0176006
 0.017568
 0.0175355
 0.0175031
 0.0174709
 0.0174388
 0.0174068
 0.0173749
 0.0173432
 0.0173115
 0.01728
 0.0172486
 0.0172173
 0.0171861
 0.017155
 0.017124
 0.0170932
 0.0170624
 0.0170318
 0.0170013
 0.0169709
 0.0169406
 0.0169104
 0.0168803
 0.0168503
 0.0168204
 0.0167906
 0.016761
 0.0167314
 0.016702
 0.0166726
 0.0166434
 0.0166142
 0.0165852
 0.0165562
 0.0165274
 0.0164986
 0.01647
 0.0164415
 0.016413
 0.0163847
 0.0163564
 0.0163283
 0.0163002
 0.0162722
 0.0162444
 0.0162166
 0.0161889
 0.0161614
 0.0161339
 0.0161065
 0.0160792
 0.016052
 0.0160249
 0.0159979
 0.0159709
 0.0159441
 0.0159173
 0.0158907
 0.0158641
 0.0158376
EdB 1 145 double
 86.382
 86.363
 86.3439
 86.3249
 86.306
 86.2871
 86.2682
 86.2494
 86.2306
 86.2119
 86.1932
 86.1745
 86.1559
 86.1373
 86.1188
 86.1003
 86.0819
 86.0634
 86.045
 86.0267
 86.0084
 85.9901
 85.9719
 85.9537
 85.9356
 85.9174
 85.8994
 85.8813
 85.8633
 85.8454
 85.8274
 85.8096
 85.7917
 85.7739
 85.7561
 85.7384
 85.7207
 85.703
 85.6853
 85.6677
 85.6502
 85.6327
 85.6152
 85.5977
 85.5803
 85.5629
 85.5455
 85.5282
 85.5109
 85.4937
 85.4765
 85.4593
 85.4421
 85.425
 85.4079
 85.3909
 85.3739
 85.3569
 85.3399
 85.323
 85.3061
 85.2893
 85.2725
 85.2557
 85.2389
 85.2222
 85.2055
 85.1889
 85.1723
 85.1557
 85.1391
 85.1226
 85.1061
 85.0896
 85.0732
 85.0568
 85.0404
 85.0241
 85.0078
 84.9915
 84.9752
 84.959
 84.9428
 84.9267
 84.9105
 84.8944
 84.8784
 84.8623
 84.8463
 84.8303
 84.8144
 84.7985
 84.7826
 84.7667
 84.7509
 84.7351
 84.7193
 84.7035
 84.6878
 84.6721
 84.6565
 84.6408
 84.6252
 84.6096
 84.5941
 84.5786
 84.5631
 84.5476
 84.5321
 84.5167
 84.5013
 84.486
 84.4707
 84.4554
 84.4401
 84.4248
 84.4096
 84.3944
 84.3792
 84.3641
 84.349
 84.3339
 84.3188
 84.3038
 84.2888
 84.2738
 84.2588
 84.2439
 84.229
 84.2141
 84.1992
 84.1844
 84.1696
 84.1548
 84.14
 84.1253
 84.1106
 84.0959
 84.0812
 84.0666
 84.052
 84.0374
 84.0228
 84.0083
 83.9938
Phase 1 145 double
 6.2895
 6.2123
 6.13509
 6.05788
 5.98066
 5.90343
 5.82621
 5.74897
 5.67173
 5.59449
 5.51725
 5.43999
 5.36274
 5.28548
 5.20821
 5.13095
 5.05367
 4.9764
 4.89911
 4.82183
 4.74454
 4.66724
 4.58994
 4.51264
 4.43533
 4.35802
 4.28071
 4.20339
 4.12606
 4.04874
 3.97141
 3.89407
 3.81673
 3.73939
 3.66204
 3.58469
 3.50734
 3.42998
 3.35261
 3.27525
 3.19788
 3.1205
 3.04313
 2.96575
 2.88836
 2.81097
 2.73358
 2.65618
 2.57879
 2.50138
 2.42398
 2.34657
 2.26915
 2.19174
 2.11432
 2.03689
 1.95946
 1.88203
 1.8046
 1.72716
 1.64972
 1.57228
 1.49483
 1.41738
 1.33993
 1.26247
 1.18501
 1.10755
 1.03008
 0.952611
 0.875138
 0.797662
 0.720183
 0.6427
 0.565215
 0.487727
 0.410235
 0.332741
 0.255244
 0.177743
 0.10024
 0.0227335
 -0.0547758
 -0.132288
 -0.209803
 -0.287321
 -0.364842
 -0.442366
 -0.519892
 -0.597422
 -0.674954
 -0.752489
 -0.830027
 -0.907567
 -0.98511
 -1.06266
 -1.14021
 -1.21776
 -1.29531
 -1.37287
 -1.45043
 -1.52799
 -1.60555
 -1.68312
 -1.76069
 -1.83826
 -1.91584
 -1.99342
 -2.071
 -2.14858
 -2.22617
 -2.30375
 -2.38134
 -2.45894
 -2.53653
 -2.61413
 -2.69173
 -2.76933
 -2.84694
 -2.92454
 -3.00215
 -3.07977
 -3.15738
 -3.235
 -3.31262
 -3.39024
 -3.46786
 -3.54549
 -3.62312
 -3.70075
 -3.77838
 -3.85602
 -3.93366
 -4.0113
 -4.08894
 -4.16658
 -4.24423
 -4.32188
 -4.39953
 -4.47718
 -4.55484
 -4.63249
 -4.71015
 -4.78781
 -4.86548
