# vtk DataFile Version 2.0
Ray Path Visualization
ASCII
DATASET POLYDATA

POINTS 441 float
 -10 -10 3
 -10 -9 3
 -10 -8 3
 -10 -7 3
 -10 -6 3
 -10 -5 3
 -10 -4 3
 -10 -3 3
 -10 -2 3
 -10 -1 3
 -10 0 3
 -10 1 3
 -10 2 3
 -10 3 3
 -10 4 3
 -10 5 3
 -10 6 3
 -10 7 3
 -10 8 3
 -10 9 3
 -10 10 3
 -9 -10 3
 -9 -9 3
 -9 -8 3
 -9 -7 3
 -9 -6 3
 -9 -5 3
 -9 -4 3
 -9 -3 3
 -9 -2 3
 -9 -1 3
 -9 0 3
 -9 1 3
 -9 2 3
 -9 3 3
 -9 4 3
 -9 5 3
 -9 6 3
 -9 7 3
 -9 8 3
 -9 9 3
 -9 10 3
 -8 -10 3
 -8 -9 3
 -8 -8 3
 -8 -7 3
 -8 -6 3
 -8 -5 3
 -8 -4 3
 -8 -3 3
 -8 -2 3
 -8 -1 3
 -8 0 3
 -8 1 3
 -8 2 3
 -8 3 3
 -8 4 3
 -8 5 3
 -8 6 3
 -8 7 3
 -8 8 3
 -8 9 3
 -8 10 3
 -7 -10 3
 -7 -9 3
 -7 -8 3
 -7 -7 3
 -7 -6 3
 -7 -5 3
 -7 -4 3
 -7 -3 3
 -7 -2 3
 -7 -1 3
 -7 0 3
 -7 1 3
 -7 2 3
 -7 3 3
 -7 4 3
 -7 5 3
 -7 6 3
 -7 7 3
 -7 8 3
 -7 9 3
 -7 10 3
 -6 -10 3
 -6 -9 3
 -6 -8 3
 -6 -7 3
 -6 -6 3
 -6 -5 3
 -6 -4 3
 -6 -3 3
 -6 -2 3
 -6 -1 3
 -6 0 3
 -6 1 3
 -6 2 3
 -6 3 3
 -6 4 3
 -6 5 3
 -6 6 3
 -6 7 3
 -6 8 3
 -6 9 3
 -6 10 3
 -5 -10 3
 -5 -9 3
 -5 -8 3
 -5 -7 3
 -5 -6 3
 -5 -5 3
 -5 -4 3
 -5 -3 3
 -5 -2 3
 -5 -1 3
 -5 0 3
 -5 1 3
 -5 2 3
 -5 3 3
 -5 4 3
 -5 5 3
 -5 6 3
 -5 7 3
 -5 8 3
 -5 9 3
 -5 10 3
 -4 -10 3
 -4 -9 3
 -4 -8 3
 -4 -7 3
 -4 -6 3
 -4 -5 3
 -4 -4 3
 -4 -3 3
 -4 -2 3
 -4 -1 3
 -4 0 3
 -4 1 3
 -4 2 3
 -4 3 3
 -4 4 3
 -4 5 3
 -4 6 3
 -4 7 3
 -4 8 3
 -4 9 3
 -4 10 3
 -3 -10 3
 -3 -9 3
 -3 -8 3
 -3 -7 3
 -3 -6 3
 -3 -5 3
 -3 -4 3
 -3 -3 3
 -3 -2 3
 -3 -1 3
 -3 0 3
 -3 1 3
 -3 2 3
 -3 3 3
 -3 4 3
 -3 5 3
 -3 6 3
 -3 7 3
 -3 8 3
 -3 9 3
 -3 10 3
 -2 -10 3
 -2 -9 3
 -2 -8 3
 -2 -7 3
 -2 -6 3
 -2 -5 3
 -2 -4 3
 -2 -3 3
 -2 -2 3
 -2 -1 3
 -2 0 3
 -2 1 3
 -2 2 3
 -2 3 3
 -2 4 3
 -2 5 3
 -2 6 3
 -2 7 3
 -2 8 3
 -2 9 3
 -2 10 3
 -1 -10 3
 -1 -9 3
 -1 -8 3
 -1 -7 3
 -1 -6 3
 -1 -5 3
 -1 -4 3
 -1 -3 3
 -1 -2 3
 -1 -1 3
 -1 0 3
 -1 1 3
 -1 2 3
 -1 3 3
 -1 4 3
 -1 5 3
 -1 6 3
 -1 7 3
 -1 8 3
 -1 9 3
 -1 10 3
 0 -10 3
 0 -9 3
 0 -8 3
 0 -7 3
 0 -6 3
 0 -5 3
 0 -4 3
 0 -3 3
 0 -2 3
 0 -1 3
 0 0 3
 0 1 3
 0 2 3
 0 3 3
 0 4 3
 0 5 3
 0 6 3
 0 7 3
 0 8 3
 0 9 3
 0 10 3
 1 -10 3
 1 -9 3
 1 -8 3
 1 -7 3
 1 -6 3
 1 -5 3
 1 -4 3
 1 -3 3
 1 -2 3
 1 -1 3
 1 0 3
 1 1 3
 1 2 3
 1 3 3
 1 4 3
 1 5 3
 1 6 3
 1 7 3
 1 8 3
 1 9 3
 1 10 3
 2 -10 3
 2 -9 3
 2 -8 3
 2 -7 3
 2 -6 3
 2 -5 3
 2 -4 3
 2 -3 3
 2 -2 3
 2 -1 3
 2 0 3
 2 1 3
 2 2 3
 2 3 3
 2 4 3
 2 5 3
 2 6 3
 2 7 3
 2 8 3
 2 9 3
 2 10 3
 3 -10 3
 3 -9 3
 3 -8 3
 3 -7 3
 3 -6 3
 3 -5 3
 3 -4 3
 3 -3 3
 3 -2 3
 3 -1 3
 3 0 3
 3 1 3
 3 2 3
 3 3 3
 3 4 3
 3 5 3
 3 6 3
 3 7 3
 3 8 3
 3 9 3
 3 10 3
 4 -10 3
 4 -9 3
 4 -8 3
 4 -7 3
 4 -6 3
 4 -5 3
 4 -4 3
 4 -3 3
 4 -2 3
 4 -1 3
 4 0 3
 4 1 3
 4 2 3
 4 3 3
 4 4 3
 4 5 3
 4 6 3
 4 7 3
 4 8 3
 4 9 3
 4 10 3
 5 -10 3
 5 -9 3
 5 -8 3
 5 -7 3
 5 -6 3
 5 -5 3
 5 -4 3
 5 -3 3
 5 -2 3
 5 -1 3
 5 0 3
 5 1 3
 5 2 3
 5 3 3
 5 4 3
 5 5 3
 5 6 3
 5 7 3
 5 8 3
 5 9 3
 5 10 3
 6 -10 3
 6 -9 3
 6 -8 3
 6 -7 3
 6 -6 3
 6 -5 3
 6 -4 3
 6 -3 3
 6 -2 3
 6 -1 3
 6 0 3
 6 1 3
 6 2 3
 6 3 3
 6 4 3
 6 5 3
 6 6 3
 6 7 3
 6 8 3
 6 9 3
 6 10 3
 7 -10 3
 7 -9 3
 7 -8 3
 7 -7 3
 7 -6 3
 7 -5 3
 7 -4 3
 7 -3 3
 7 -2 3
 7 -1 3
 7 0 3
 7 1 3
 7 2 3
 7 3 3
 7 4 3
 7 5 3
 7 6 3
 7 7 3
 7 8 3
 7 9 3
 7 10 3
 8 -10 3
 8 -9 3
 8 -8 3
 8 -7 3
 8 -6 3
 8 -5 3
 8 -4 3
 8 -3 3
 8 -2 3
 8 -1 3
 8 0 3
 8 1 3
 8 2 3
 8 3 3
 8 4 3
 8 5 3
 8 6 3
 8 7 3
 8 8 3
 8 9 3
 8 10 3
 9 -10 3
 9 -9 3
 9 -8 3
 9 -7 3
 9 -6 3
 9 -5 3
 9 -4 3
 9 -3 3
 9 -2 3
 9 -1 3
 9 0 3
 9 1 3
 9 2 3
 9 3 3
 9 4 3
 9 5 3
 9 6 3
 9 7 3
 9 8 3
 9 9 3
 9 10 3
 10 -10 3
 10 -9 3
 10 -8 3
 10 -7 3
 10 -6 3
 10 -5 3
 10 -4 3
 10 -3 3
 10 -2 3
 10 -1 3
 10 0 3
 10 1 3
 10 2 3
 10 3 3
 10 4 3
 10 5 3
 10 6 3
 10 7 3
 10 8 3
 10 9 3
 10 10 3
VERTICES 1 442
441
 0 1 2 3 4
 5 6 7 8 9
 10 11 12 13 14
 15 16 17 18 19
 20 21 22 23 24
 25 26 27 28 29
 30 31 32 33 34
 35 36 37 38 39
 40 41 42 43 44
 45 46 47 48 49
 50 51 52 53 54
 55 56 57 58 59
 60 61 62 63 64
 65 66 67 68 69
 70 71 72 73 74
 75 76 77 78 79
 80 81 82 83 84
 85 86 87 88 89
 90 91 92 93 94
 95 96 97 98 99
 100 101 102 103 104
 105 106 107 108 109
 110 111 112 113 114
 115 116 117 118 119
 120 121 122 123 124
 125 126 127 128 129
 130 131 132 133 134
 135 136 137 138 139
 140 141 142 143 144
 145 146 147 148 149
 150 151 152 153 154
 155 156 157 158 159
 160 161 162 163 164
 165 166 167 168 169
 170 171 172 173 174
 175 176 177 178 179
 180 181 182 183 184
 185 186 187 188 189
 190 191 192 193 194
 195 196 197 198 199
 200 201 202 203 204
 205 206 207 208 209
 210 211 212 213 214
 215 216 217 218 219
 220 221 222 223 224
 225 226 227 228 229
 230 231 232 233 234
 235 236 237 238 239
 240 241 242 243 244
 245 246 247 248 249
 250 251 252 253 254
 255 256 257 258 259
 260 261 262 263 264
 265 266 267 268 269
 270 271 272 273 274
 275 276 277 278 279
 280 281 282 283 284
 285 286 287 288 289
 290 291 292 293 294
 295 296 297 298 299
 300 301 302 303 304
 305 306 307 308 309
 310 311 312 313 314
 315 316 317 318 319
 320 321 322 323 324
 325 326 327 328 329
 330 331 332 333 334
 335 336 337 338 339
 340 341 342 343 344
 345 346 347 348 349
 350 351 352 353 354
 355 356 357 358 359
 360 361 362 363 364
 365 366 367 368 369
 370 371 372 373 374
 375 376 377 378 379
 380 381 382 383 384
 385 386 387 388 389
 390 391 392 393 394
 395 396 397 398 399
 400 401 402 403 404
 405 406 407 408 409
 410 411 412 413 414
 415 416 417 418 419
 420 421 422 423 424
 425 426 427 428 429
 430 431 432 433 434
 435 436 437 438 439
 440
POINT_DATA 441
FIELD FieldData 4
ReceiverID 1 441 int
 0
 1
 2
 3
 4
 5
 6
 7
 8
 9
 10
 11
 12
 13
 14
 15
 16
 17
 18
 19
 20
 21
 22
 23
 24
 25
 26
 27
 28
 29
 30
 31
 32
 33
 34
 35
 36
 37
 38
 39
 40
 41
 42
 43
 44
 45
 46
 47
 48
 49
 50
 51
 52
 53
 54
 55
 56
 57
 58
 59
 60
 61
 62
 63
 64
 65
 66
 67
 68
 69
 70
 71
 72
 73
 74
 75
 76
 77
 78
 79
 80
 81
 82
 83
 84
 85
 86
 87
 88
 89
 90
 91
 92
 93
 94
 95
 96
 97
 98
 99
 100
 101
 102
 103
 104
 105
 106
 107
 108
 109
 110
 111
 112
 113
 114
 115
 116
 117
 118
 119
 120
 121
 122
 123
 124
 125
 126
 127
 128
 129
 130
 131
 132
 133
 134
 135
 136
 137
 138
 139
 140
 141
 142
 143
 144
 145
 146
 147
 148
 149
 150
 151
 152
 153
 154
 155
 156
 157
 158
 159
 160
 161
 162
 163
 164
 165
 166
 167
 168
 169
 170
 171
 172
 173
 174
 175
 176
 177
 178
 179
 180
 181
 182
 183
 184
 185
 186
 187
 188
 189
 190
 191
 192
 193
 194
 195
 196
 197
 198
 199
 200
 201
 202
 203
 204
 205
 206
 207
 208
 209
 210
 211
 212
 213
 214
 215
 216
 217
 218
 219
 220
 221
 222
 223
 224
 225
 226
 227
 228
 229
 230
 231
 232
 233
 234
 235
 236
 237
 238
 239
 240
 241
 242
 243
 244
 245
 246
 247
 248
 249
 250
 251
 252
 253
 254
 255
 256
 257
 258
 259
 260
 261
 262
 263
 264
 265
 266
 267
 268
 269
 270
 271
 272
 273
 274
 275
 276
 277
 278
 279
 280
 281
 282
 283
 284
 285
 286
 287
 288
 289
 290
 291
 292
 293
 294
 295
 296
 297
 298
 299
 300
 301
 302
 303
 304
 305
 306
 307
 308
 309
 310
 311
 312
 313
 314
 315
 316
 317
 318
 319
 320
 321
 322
 323
 324
 325
 326
 327
 328
 329
 330
 331
 332
 333
 334
 335
 336
 337
 338
 339
 340
 341
 342
 343
 344
 345
 346
 347
 348
 349
 350
 351
 352
 353
 354
 355
 356
 357
 358
 359
 360
 361
 362
 363
 364
 365
 366
 367
 368
 369
 370
 371
 372
 373
 374
 375
 376
 377
 378
 379
 380
 381
 382
 383
 384
 385
 386
 387
 388
 389
 390
 391
 392
 393
 394
 395
 396
 397
 398
 399
 400
 401
 402
 403
 404
 405
 406
 407
 408
 409
 410
 411
 412
 413
 414
 415
 416
 417
 418
 419
 420
 421
 422
 423
 424
 425
 426
 427
 428
 429
 430
 431
 432
 433
 434
 435
 436
 437
 438
 439
 440
Eabs 1 441 double
 0.552376
 0.59466
 0.595748
 0.675709
 0.630989
 0.747374
 0.712506
 0.689652
 0.863618
 0.870603
 0.846651
 0.870603
 0.863618
 0.689652
 0.712506
 0.747374
 0.630989
 0.675709
 0.595748
 0.59466
 0.552376
 0.59466
 0.586934
 0.704826
 0.639025
 0.737438
 0.803301
 0.725924
 0.866879
 0.937496
 0.750052
 0.702313
 0.750052
 0.937496
 0.866879
 0.725924
 0.803301
 0.737438
 0.639025
 0.704826
 0.586934
 0.59466
 0.595748
 0.704826
 0.679027
 0.64756
 0.846651
 0.920843
 0.693606
 1.05924
 0.725565
 1.05234
 1.14463
 1.05234
 0.725565
 1.05924
 0.693606
 0.920843
 0.846651
 0.64756
 0.679027
 0.704826
 0.595748
 0.675709
 0.639025
 0.64756
 0.769413
 0.937496
 1.07539
 1.05234
 0.760563
 1.2401
 0.786545
 0.877749
 0.786545
 1.2401
 0.760563
 1.05234
 1.07539
 0.937496
 0.769413
 0.64756
 0.639025
 0.675709
 0.630989
 0.737438
 0.846651
 0.937496
 1.00096
 1.03573
 1.09644
 1.29598
 1.43835
 0.9719
 0.934314
 0.9719
 1.43835
 1.29598
 1.09644
 1.03573
 1.00096
 0.937496
 0.846651
 0.737438
 0.630989
 0.747374
 0.803301
 0.920843
 1.07539
 1.03573
 0.786545
 1.1913
 1.56509
 1.65717
 1.11109
 1.60711
 1.11109
 1.65717
 1.56509
 1.1913
 0.786545
 1.03573
 1.07539
 0.920843
 0.803301
 0.747374
 0.712506
 0.725924
 0.693606
 1.05234
 1.09644
 1.1913
 1.22183
 1.60711
 1.86847
 2.03806
 1.57808
 2.03806
 1.86847
 1.60711
 1.22183
 1.1913
 1.09644
 1.05234
 0.693606
 0.725924
 0.712506
 0.689652
 0.866879
 1.05924
 0.760563
 1.29598
 1.56509
 1.60711
 1.61014
 1.64425
 2.02158
 2.31324
 2.02158
 1.64425
 1.61014
 1.60711
 1.56509
 1.29598
 0.760563
 1.05924
 0.866879
 0.689652
 0.863618
 0.937496
 0.725565
 1.2401
 1.43835
 1.65717
 1.86847
 1.64425
 2.17433
 2.59932
 2.75749
 2.59932
 2.17433
 1.64425
 1.86847
 1.65717
 1.43835
 1.2401
 0.725565
 0.937496
 0.863618
 0.870603
 0.750052
 1.05234
 0.786545
 0.9719
 1.11109
 2.03806
 2.02158
 2.59932
 3.38282
 3.82131
 3.38282
 2.59932
 2.02158
 2.03806
 1.11109
 0.9719
 0.786545
 1.05234
 0.750052
 0.870603
 0.846651
 0.702313
 1.14463
 0.877749
 0.934314
 1.60711
 1.57808
 2.31324
 2.75749
 3.82131
 3.87298
 3.82131
 2.75749
 2.31324
 1.57808
 1.60711
 0.934314
 0.877749
 1.14463
 0.702313
 0.846651
 0.870603
 0.750052
 1.05234
 0.786545
 0.9719
 1.11109
 2.03806
 2.02158
 2.59932
 3.38282
 3.82131
 3.38282
 2.59932
 2.02158
 2.03806
 1.11109
 0.9719
 0.786545
 1.05234
 0.750052
 0.870603
 0.863618
 0.937496
 0.725565
 1.2401
 1.43835
 1.65717
 1.86847
 1.64425
 2.17433
 2.59932
 2.75749
 2.59932
 2.17433
 1.64425
 1.86847
 1.65717
 1.43835
 1.2401
 0.725565
 0.937496
 0.863618
 0.689652
 0.866879
 1.05924
 0.760563
 1.29598
 1.56509
 1.60711
 1.61014
 1.64425
 2.02158
 2.31324
 2.02158
 1.64425
 1.61014
 1.60711
 1.56509
 1.29598
 0.760563
 1.05924
 0.866879
 0.689652
 0.712506
 0.725924
 0.693606
 1.05234
 1.09644
 1.1913
 1.22183
 1.60711
 1.86847
 2.03806
 1.57808
 2.03806
 1.86847
 1.60711
 1.22183
 1.1913
 1.09644
 1.05234
 0.693606
 0.725924
 0.712506
 0.747374
 0.803301
 0.920843
 1.07539
 1.03573
 0.786545
 1.1913
 1.56509
 1.65717
 1.11109
 1.60711
 1.11109
 1.65717
 1.56509
 1.1913
 0.786545
 1.03573
 1.07539
 0.920843
 0.803301
 0.747374
 0.630989
 0.737438
 0.846651
 0.937496
 1.00096
 1.03573
 1.09644
 1.29598
 1.43835
 0.9719
 0.934314
 0.9719
 1.43835
 1.29598
 1.09644
 1.03573
 1.00096
 0.937496
 0.846651
 0.737438
 0.630989
 0.675709
 0.639025
 0.64756
 0.769413
 0.937496
 1.07539
 1.05234
 0.760563
 1.2401
 0.786545
 0.877749
 0.786545
 1.2401
 0.760563
 1.05234
 1.07539
 0.937496
 0.769413
 0.64756
 0.639025
 0.675709
 0.595748
 0.704826
 0.679027
 0.64756
 0.846651
 0.920843
 0.693606
 1.05924
 0.725565
 1.05234
 1.14463
 1.05234
 0.725565
 1.05924
 0.693606
 0.920843
 0.846651
 0.64756
 0.679027
 0.704826
 0.595748
 0.59466
 0.586934
 0.704826
 0.639025
 0.737438
 0.803301
 0.725924
 0.866879
 0.937496
 0.750052
 0.702313
 0.750052
 0.937496
 0.866879
 0.725924
 0.803301
 0.737438
 0.639025
 0.704826
 0.586934
 0.59466
 0.552376
 0.59466
 0.595748
 0.675709
 0.630989
 0.747374
 0.712506
 0.689652
 0.863618
 0.870603
 0.846651
 0.870603
 0.863618
 0.689652
 0.712506
 0.747374
 0.630989
 0.675709
 0.595748
 0.59466
 0.552376
EdB 1 441 double
 114.845
 115.485
 115.501
 116.595
 116
 117.471
 117.056
 116.773
 118.726
 118.796
 118.554
 118.796
 118.726
 116.773
 117.056
 117.471
 116
 116.595
 115.501
 115.485
 114.845
 115.485
 115.372
 116.962
 116.11
 117.355
 118.098
 117.218
 118.759
 119.439
 117.502
 116.931
 117.502
 119.439
 118.759
 117.218
 118.098
 117.355
 116.11
 116.962
 115.372
 115.485
 115.501
 116.962
 116.638
 116.226
 118.554
 119.284
 116.822
 120.5
 117.214
 120.443
 121.173
 120.443
 117.214
 120.5
 116.822
 119.284
 118.554
 116.226
 116.638
 116.962
 115.501
 116.595
 116.11
 116.226
 117.723
 119.439
 120.631
 120.443
 117.623
 121.869
 117.914
 118.867
 117.914
 121.869
 117.623
 120.443
 120.631
 119.439
 117.723
 116.226
 116.11
 116.595
 116
 117.355
 118.554
 119.439
 120.008
 120.305
 120.8
 122.252
 123.157
 119.752
 119.41
 119.752
 123.157
 122.252
 120.8
 120.305
 120.008
 119.439
 118.554
 117.355
 116
 117.471
 118.098
 119.284
 120.631
 120.305
 117.914
 121.52
 123.891
 124.387
 120.915
 124.121
 120.915
 124.387
 123.891
 121.52
 117.914
 120.305
 120.631
 119.284
 118.098
 117.471
 117.056
 117.218
 116.822
 120.443
 120.8
 121.52
 121.74
 124.121
 125.43
 126.184
 123.963
 126.184
 125.43
 124.121
 121.74
 121.52
 120.8
 120.443
 116.822
 117.218
 117.056
 116.773
 118.759
 120.5
 117.623
 122.252
 123.891
 124.121
 124.137
 124.319
 126.114
 127.284
 126.114
 124.319
 124.137
 124.121
 123.891
 122.252
 117.623
 120.5
 118.759
 116.773
 118.726
 119.439
 117.214
 121.869
 123.157
 124.387
 125.43
 124.319
 126.747
 128.297
 128.81
 128.297
 126.747
 124.319
 125.43
 124.387
 123.157
 121.869
 117.214
 119.439
 118.726
 118.796
 117.502
 120.443
 117.914
 119.752
 120.915
 126.184
 126.114
 128.297
 130.586
 131.644
 130.586
 128.297
 126.114
 126.184
 120.915
 119.752
 117.914
 120.443
 117.502
 118.796
 118.554
 116.931
 121.173
 118.867
 119.41
 124.121
 123.963
 127.284
 128.81
 131.644
 131.761
 131.644
 128.81
 127.284
 123.963
 124.121
 119.41
 118.867
 121.173
 116.931
 118.554
 118.796
 117.502
 120.443
 117.914
 119.752
 120.915
 126.184
 126.114
 128.297
 130.586
 131.644
 130.586
 128.297
 126.114
 126.184
 120.915
 119.752
 117.914
 120.443
 117.502
 118.796
 118.726
 119.439
 117.214
 121.869
 123.157
 124.387
 125.43
 124.319
 126.747
 128.297
 128.81
 128.297
 126.747
 124.319
 125.43
 124.387
 123.157
 121.869
 117.214
 119.439
 118.726
 116.773
 118.759
 120.5
 117.623
 122.252
 123.891
 124.121
 124.137
 124.319
 126.114
 127.284
 126.114
 124.319
 124.137
 124.121
 123.891
 122.252
 117.623
 120.5
 118.759
 116.773
 117.056
 117.218
 116.822
 120.443
 120.8
 121.52
 121.74
 124.121
 125.43
 126.184
 123.963
 126.184
 125.43
 124.121
 121.74
 121.52
 120.8
 120.443
 116.822
 117.218
 117.056
 117.471
 118.098
 119.284
 120.631
 120.305
 117.914
 121.52
 123.891
 124.387
 120.915
 124.121
 120.915
 124.387
 123.891
 121.52
 117.914
 120.305
 120.631
 119.284
 118.098
 117.471
 116
 117.355
 118.554
 119.439
 120.008
 120.305
 120.8
 122.252
 123.157
 119.752
 119.41
 119.752
 123.157
 122.252
 120.8
 120.305
 120.008
 119.439
 118.554
 117.355
 116
 116.595
 116.11
 116.226
 117.723
 119.439
 120.631
 120.443
 117.623
 121.869
 117.914
 118.867
 117.914
 121.869
 117.623
 120.443
 120.631
 119.439
 117.723
 116.226
 116.11
 116.595
 115.501
 116.962
 116.638
 116.226
 118.554
 119.284
 116.822
 120.5
 117.214
 120.443
 121.173
 120.443
 117.214
 120.5
 116.822
 119.284
 118.554
 116.226
 116.638
 116.962
 115.501
 115.485
 115.372
 116.962
 116.11
 117.355
 118.098
 117.218
 118.759
 119.439
 117.502
 116.931
 117.502
 119.439
 118.759
 117.218
 118.098
 117.355
 116.11
 116.962
 115.372
 115.485
 114.845
 115.485
 115.501
 116.595
 116
 117.471
 117.056
 116.773
 118.726
 118.796
 118.554
 118.796
 118.726
 116.773
 117.056
 117.471
 116
 116.595
 115.501
 115.485
 114.845
Phase 1 441 double
 -6.08624
 -2.3638
 -1.28017
 4.98375
 6.97999
 6.44054
 -6.36918
 -4.59891
 2.29233
 -0.930965
 4.56429
 2.21063
 -0.849261
 -1.45732
 -3.22759
 3.29895
 3.83839
 1.84216
 1.86143
 0.777792
 -2.94464
 -2.3638
 0.762901
 3.91065
 1.61749
 7.53291
 -8.04194
 1.5382
 6.35477
 -3.39321
 -4.85128
 -1.2053
 -1.70969
 -0.251616
 3.21318
 -1.60339
 -4.90034
 4.39132
 -1.5241
 0.769056
 -2.37869
 0.777792
 -1.28017
 3.91065
 -7.84342
 -4.13543
 4.33474
 -6.93676
 4.25209
 -3.94971
 -7.45874
 -6.22512
 1.36747
 -3.08353
 -4.31715
 -0.808119
 1.11049
 -3.79516
 1.19315
 -0.993833
 -4.70183
 0.769056
 1.86143
 4.98375
 1.61749
 -4.13543
 -3.85749
 -3.39321
 8.88417
 -6.22512
 4.86752
 2.66996
 6.96037
 0.103583
 3.81878
 -0.471636
 1.72593
 -3.08353
 5.74257
 -0.251616
 -0.715901
 -0.993833
 -1.5241
 1.84216
 6.97999
 7.53291
 4.33474
 -3.39321
 2.13525
 0.783546
 -2.8032
 8.21494
 -5.75882
 0.371385
 -4.95114
 -2.77021
 -2.61723
 5.07335
 0.33839
 -2.35805
 -1.00635
 -0.251616
 1.19315
 4.39132
 3.83839
 6.44054
 -8.04194
 -6.93676
 8.88417
 0.783546
 6.96037
 5.08985
 -9.36423
 0.474559
 -6.90527
 0.617631
 -3.76368
 -2.66703
 -6.22263
 1.94825
 3.81878
 -2.35805
 5.74257
 -3.79516
 -4.90034
 3.29895
 -6.36918
 1.5382
 4.25209
 -6.22512
 -2.8032
 5.08985
 8.18731
 3.66593
 1.33795
 -0.320811
 -4.11015
 2.82078
 -1.80364
 0.524337
 5.04571
 1.94825
 0.33839
 -3.08353
 1.11049
 -1.60339
 -3.22759
 -4.59891
 6.35477
 -3.94971
 4.86752
 8.21494
 -9.36423
 3.66593
 6.85584
 -5.03993
 0.961398
 -4.14428
 -2.18019
 -1.89834
 3.71425
 0.524337
 -6.22263
 5.07335
 1.72593
 -0.808119
 3.21318
 -1.45732
 2.29233
 -3.39321
 -7.45874
 2.66996
 -5.75882
 0.474559
 1.33795
 -5.03993
 -5.38102
 2.72391
 -5.97328
 -0.417683
 -2.23942
 -1.89834
 -1.80364
 -2.66703
 -2.61723
 -0.471636
 -4.31715
 -0.251616
 -0.849261
 -0.930965
 -4.85128
 -6.22512
 6.96037
 0.371385
 -6.90527
 -0.320811
 0.961398
 2.72391
 -3.83186
 -0.815435
 -0.69027
 -0.417683
 -2.18019
 2.82078
 -3.76368
 -2.77021
 3.81878
 -3.08353
 -1.70969
 2.21063
 1.06621
 2.33068
 -1.74192
 -3.16203
 -8.25573
 2.27684
 -5.07813
 0.184793
 -5.33111
 2.29981
 -0.0521971
 -0.77762
 0.139095
 3.25376
 -1.99503
 -1.01933
 -5.07481
 -0.243949
 -4.6991
 -0.740531
 -2.18259
 2.21063
 -1.70969
 -3.08353
 3.81878
 -2.77021
 -3.76368
 2.82078
 -2.18019
 -0.417683
 -0.69027
 -3.98066
 2.45132
 -3.55928
 -5.32179
 5.96237
 -0.622088
 -5.9118
 0.677188
 0.0580642
 1.4319
 5.35222
 -0.849261
 -0.251616
 -4.31715
 -0.471636
 -2.61723
 -2.66703
 -1.80364
 -1.89834
 -2.23942
 -0.417683
 -5.3329
 -3.55928
 0.902169
 1.24326
 -4.94524
 -5.80863
 0.524368
 -3.61323
 -1.17556
 2.88998
 -3.99085
 -1.45732
 3.21318
 -0.808119
 1.72593
 5.07335
 -6.22263
 0.524337
 3.71425
 -1.89834
 -2.18019
 0.184806
 -5.32179
 1.24326
 0.572654
 -2.61726
 -3.08104
 1.93176
 -1.41567
 2.33347
 0.071588
 1.68428
 -3.22759
 -1.60339
 1.11049
 -3.08353
 0.33839
 1.94825
 5.04571
 0.524337
 -1.80364
 2.82078
 1.20612
 5.96237
 -4.94524
 -2.61726
 1.90412
 -1.19334
 3.47998
 0.0580642
 -2.0311
 -4.74498
 -0.0859963
 3.29895
 -4.90034
 -3.79516
 5.74257
 -2.35805
 3.81878
 1.94825
 -6.22263
 -2.66703
 -3.76368
 2.27565
 -0.622088
 -5.80863
 -3.08104
 -1.19334
 0.677188
 -5.49964
 2.60098
 -0.653571
 -1.75875
 0.157355
 3.83839
 4.39132
 1.19315
 -0.251616
 -1.00635
 -2.35805
 0.33839
 5.07335
 -2.61723
 -2.77021
 -1.97239
 -5.9118
 0.524368
 1.93176
 3.47998
 -5.49964
 -4.14794
 2.88998
 -1.94844
 1.24973
 0.6968
 1.84216
 -1.5241
 -0.993833
 -0.715901
 -0.251616
 5.74257
 -3.08353
 1.72593
 -0.471636
 3.81878
 3.12107
 0.677188
 -3.61323
 -1.41567
 0.0580642
 2.60098
 2.88998
 2.42569
 2.14776
 -4.6657
 -1.29944
 1.86143
 0.769056
 -4.70183
 -0.993833
 1.19315
 -3.79516
 1.11049
 -0.808119
 -4.31715
 -3.08353
 -1.74279
 0.0580642
 -1.17556
 2.33347
 -2.0311
 -0.653571
 -1.94844
 2.14776
 -1.56023
 -2.37254
 5.00302
 0.777792
 -2.37869
 0.769056
 -1.5241
 4.39132
 -4.90034
 -1.60339
 3.21318
 -0.251616
 -1.70969
 -3.9519
 1.4319
 2.88998
 0.071588
 -4.74498
 -1.75875
 1.24973
 -4.6657
 -2.37254
 -5.52028
 3.91938
 -2.94464
 0.777792
 1.86143
 1.84216
 3.83839
 3.29895
 -3.22759
 -1.45732
 -0.849261
 2.21063
 1.06631
 5.35222
 -3.99085
 1.68428
 -0.0859963
 0.157355
 0.6968
 -1.29944
 5.00302
 3.91938
 0.19695
