# vtk DataFile Version 2.0
Ray Path Visualization
ASCII
DATASET POLYDATA

POINTS 441 float
 -10 -10 3
 -10 -9 3
 -10 -8 3
 -10 -7 3
 -10 -6 3
 -10 -5 3
 -10 -4 3
 -10 -3 3
 -10 -2 3
 -10 -1 3
 -10 0 3
 -10 1 3
 -10 2 3
 -10 3 3
 -10 4 3
 -10 5 3
 -10 6 3
 -10 7 3
 -10 8 3
 -10 9 3
 -10 10 3
 -9 -10 3
 -9 -9 3
 -9 -8 3
 -9 -7 3
 -9 -6 3
 -9 -5 3
 -9 -4 3
 -9 -3 3
 -9 -2 3
 -9 -1 3
 -9 0 3
 -9 1 3
 -9 2 3
 -9 3 3
 -9 4 3
 -9 5 3
 -9 6 3
 -9 7 3
 -9 8 3
 -9 9 3
 -9 10 3
 -8 -10 3
 -8 -9 3
 -8 -8 3
 -8 -7 3
 -8 -6 3
 -8 -5 3
 -8 -4 3
 -8 -3 3
 -8 -2 3
 -8 -1 3
 -8 0 3
 -8 1 3
 -8 2 3
 -8 3 3
 -8 4 3
 -8 5 3
 -8 6 3
 -8 7 3
 -8 8 3
 -8 9 3
 -8 10 3
 -7 -10 3
 -7 -9 3
 -7 -8 3
 -7 -7 3
 -7 -6 3
 -7 -5 3
 -7 -4 3
 -7 -3 3
 -7 -2 3
 -7 -1 3
 -7 0 3
 -7 1 3
 -7 2 3
 -7 3 3
 -7 4 3
 -7 5 3
 -7 6 3
 -7 7 3
 -7 8 3
 -7 9 3
 -7 10 3
 -6 -10 3
 -6 -9 3
 -6 -8 3
 -6 -7 3
 -6 -6 3
 -6 -5 3
 -6 -4 3
 -6 -3 3
 -6 -2 3
 -6 -1 3
 -6 0 3
 -6 1 3
 -6 2 3
 -6 3 3
 -6 4 3
 -6 5 3
 -6 6 3
 -6 7 3
 -6 8 3
 -6 9 3
 -6 10 3
 -5 -10 3
 -5 -9 3
 -5 -8 3
 -5 -7 3
 -5 -6 3
 -5 -5 3
 -5 -4 3
 -5 -3 3
 -5 -2 3
 -5 -1 3
 -5 0 3
 -5 1 3
 -5 2 3
 -5 3 3
 -5 4 3
 -5 5 3
 -5 6 3
 -5 7 3
 -5 8 3
 -5 9 3
 -5 10 3
 -4 -10 3
 -4 -9 3
 -4 -8 3
 -4 -7 3
 -4 -6 3
 -4 -5 3
 -4 -4 3
 -4 -3 3
 -4 -2 3
 -4 -1 3
 -4 0 3
 -4 1 3
 -4 2 3
 -4 3 3
 -4 4 3
 -4 5 3
 -4 6 3
 -4 7 3
 -4 8 3
 -4 9 3
 -4 10 3
 -3 -10 3
 -3 -9 3
 -3 -8 3
 -3 -7 3
 -3 -6 3
 -3 -5 3
 -3 -4 3
 -3 -3 3
 -3 -2 3
 -3 -1 3
 -3 0 3
 -3 1 3
 -3 2 3
 -3 3 3
 -3 4 3
 -3 5 3
 -3 6 3
 -3 7 3
 -3 8 3
 -3 9 3
 -3 10 3
 -2 -10 3
 -2 -9 3
 -2 -8 3
 -2 -7 3
 -2 -6 3
 -2 -5 3
 -2 -4 3
 -2 -3 3
 -2 -2 3
 -2 -1 3
 -2 0 3
 -2 1 3
 -2 2 3
 -2 3 3
 -2 4 3
 -2 5 3
 -2 6 3
 -2 7 3
 -2 8 3
 -2 9 3
 -2 10 3
 -1 -10 3
 -1 -9 3
 -1 -8 3
 -1 -7 3
 -1 -6 3
 -1 -5 3
 -1 -4 3
 -1 -3 3
 -1 -2 3
 -1 -1 3
 -1 0 3
 -1 1 3
 -1 2 3
 -1 3 3
 -1 4 3
 -1 5 3
 -1 6 3
 -1 7 3
 -1 8 3
 -1 9 3
 -1 10 3
 0 -10 3
 0 -9 3
 0 -8 3
 0 -7 3
 0 -6 3
 0 -5 3
 0 -4 3
 0 -3 3
 0 -2 3
 0 -1 3
 0 0 3
 0 1 3
 0 2 3
 0 3 3
 0 4 3
 0 5 3
 0 6 3
 0 7 3
 0 8 3
 0 9 3
 0 10 3
 1 -10 3
 1 -9 3
 1 -8 3
 1 -7 3
 1 -6 3
 1 -5 3
 1 -4 3
 1 -3 3
 1 -2 3
 1 -1 3
 1 0 3
 1 1 3
 1 2 3
 1 3 3
 1 4 3
 1 5 3
 1 6 3
 1 7 3
 1 8 3
 1 9 3
 1 10 3
 2 -10 3
 2 -9 3
 2 -8 3
 2 -7 3
 2 -6 3
 2 -5 3
 2 -4 3
 2 -3 3
 2 -2 3
 2 -1 3
 2 0 3
 2 1 3
 2 2 3
 2 3 3
 2 4 3
 2 5 3
 2 6 3
 2 7 3
 2 8 3
 2 9 3
 2 10 3
 3 -10 3
 3 -9 3
 3 -8 3
 3 -7 3
 3 -6 3
 3 -5 3
 3 -4 3
 3 -3 3
 3 -2 3
 3 -1 3
 3 0 3
 3 1 3
 3 2 3
 3 3 3
 3 4 3
 3 5 3
 3 6 3
 3 7 3
 3 8 3
 3 9 3
 3 10 3
 4 -10 3
 4 -9 3
 4 -8 3
 4 -7 3
 4 -6 3
 4 -5 3
 4 -4 3
 4 -3 3
 4 -2 3
 4 -1 3
 4 0 3
 4 1 3
 4 2 3
 4 3 3
 4 4 3
 4 5 3
 4 6 3
 4 7 3
 4 8 3
 4 9 3
 4 10 3
 5 -10 3
 5 -9 3
 5 -8 3
 5 -7 3
 5 -6 3
 5 -5 3
 5 -4 3
 5 -3 3
 5 -2 3
 5 -1 3
 5 0 3
 5 1 3
 5 2 3
 5 3 3
 5 4 3
 5 5 3
 5 6 3
 5 7 3
 5 8 3
 5 9 3
 5 10 3
 6 -10 3
 6 -9 3
 6 -8 3
 6 -7 3
 6 -6 3
 6 -5 3
 6 -4 3
 6 -3 3
 6 -2 3
 6 -1 3
 6 0 3
 6 1 3
 6 2 3
 6 3 3
 6 4 3
 6 5 3
 6 6 3
 6 7 3
 6 8 3
 6 9 3
 6 10 3
 7 -10 3
 7 -9 3
 7 -8 3
 7 -7 3
 7 -6 3
 7 -5 3
 7 -4 3
 7 -3 3
 7 -2 3
 7 -1 3
 7 0 3
 7 1 3
 7 2 3
 7 3 3
 7 4 3
 7 5 3
 7 6 3
 7 7 3
 7 8 3
 7 9 3
 7 10 3
 8 -10 3
 8 -9 3
 8 -8 3
 8 -7 3
 8 -6 3
 8 -5 3
 8 -4 3
 8 -3 3
 8 -2 3
 8 -1 3
 8 0 3
 8 1 3
 8 2 3
 8 3 3
 8 4 3
 8 5 3
 8 6 3
 8 7 3
 8 8 3
 8 9 3
 8 10 3
 9 -10 3
 9 -9 3
 9 -8 3
 9 -7 3
 9 -6 3
 9 -5 3
 9 -4 3
 9 -3 3
 9 -2 3
 9 -1 3
 9 0 3
 9 1 3
 9 2 3
 9 3 3
 9 4 3
 9 5 3
 9 6 3
 9 7 3
 9 8 3
 9 9 3
 9 10 3
 10 -10 3
 10 -9 3
 10 -8 3
 10 -7 3
 10 -6 3
 10 -5 3
 10 -4 3
 10 -3 3
 10 -2 3
 10 -1 3
 10 0 3
 10 1 3
 10 2 3
 10 3 3
 10 4 3
 10 5 3
 10 6 3
 10 7 3
 10 8 3
 10 9 3
 10 10 3
VERTICES 1 442
441
 0 1 2 3 4
 5 6 7 8 9
 10 11 12 13 14
 15 16 17 18 19
 20 21 22 23 24
 25 26 27 28 29
 30 31 32 33 34
 35 36 37 38 39
 40 41 42 43 44
 45 46 47 48 49
 50 51 52 53 54
 55 56 57 58 59
 60 61 62 63 64
 65 66 67 68 69
 70 71 72 73 74
 75 76 77 78 79
 80 81 82 83 84
 85 86 87 88 89
 90 91 92 93 94
 95 96 97 98 99
 100 101 102 103 104
 105 106 107 108 109
 110 111 112 113 114
 115 116 117 118 119
 120 121 122 123 124
 125 126 127 128 129
 130 131 132 133 134
 135 136 137 138 139
 140 141 142 143 144
 145 146 147 148 149
 150 151 152 153 154
 155 156 157 158 159
 160 161 162 163 164
 165 166 167 168 169
 170 171 172 173 174
 175 176 177 178 179
 180 181 182 183 184
 185 186 187 188 189
 190 191 192 193 194
 195 196 197 198 199
 200 201 202 203 204
 205 206 207 208 209
 210 211 212 213 214
 215 216 217 218 219
 220 221 222 223 224
 225 226 227 228 229
 230 231 232 233 234
 235 236 237 238 239
 240 241 242 243 244
 245 246 247 248 249
 250 251 252 253 254
 255 256 257 258 259
 260 261 262 263 264
 265 266 267 268 269
 270 271 272 273 274
 275 276 277 278 279
 280 281 282 283 284
 285 286 287 288 289
 290 291 292 293 294
 295 296 297 298 299
 300 301 302 303 304
 305 306 307 308 309
 310 311 312 313 314
 315 316 317 318 319
 320 321 322 323 324
 325 326 327 328 329
 330 331 332 333 334
 335 336 337 338 339
 340 341 342 343 344
 345 346 347 348 349
 350 351 352 353 354
 355 356 357 358 359
 360 361 362 363 364
 365 366 367 368 369
 370 371 372 373 374
 375 376 377 378 379
 380 381 382 383 384
 385 386 387 388 389
 390 391 392 393 394
 395 396 397 398 399
 400 401 402 403 404
 405 406 407 408 409
 410 411 412 413 414
 415 416 417 418 419
 420 421 422 423 424
 425 426 427 428 429
 430 431 432 433 434
 435 436 437 438 439
 440
POINT_DATA 441
FIELD FieldData 4
ReceiverID 1 441 int
 0
 1
 2
 3
 4
 5
 6
 7
 8
 9
 10
 11
 12
 13
 14
 15
 16
 17
 18
 19
 20
 21
 22
 23
 24
 25
 26
 27
 28
 29
 30
 31
 32
 33
 34
 35
 36
 37
 38
 39
 40
 41
 42
 43
 44
 45
 46
 47
 48
 49
 50
 51
 52
 53
 54
 55
 56
 57
 58
 59
 60
 61
 62
 63
 64
 65
 66
 67
 68
 69
 70
 71
 72
 73
 74
 75
 76
 77
 78
 79
 80
 81
 82
 83
 84
 85
 86
 87
 88
 89
 90
 91
 92
 93
 94
 95
 96
 97
 98
 99
 100
 101
 102
 103
 104
 105
 106
 107
 108
 109
 110
 111
 112
 113
 114
 115
 116
 117
 118
 119
 120
 121
 122
 123
 124
 125
 126
 127
 128
 129
 130
 131
 132
 133
 134
 135
 136
 137
 138
 139
 140
 141
 142
 143
 144
 145
 146
 147
 148
 149
 150
 151
 152
 153
 154
 155
 156
 157
 158
 159
 160
 161
 162
 163
 164
 165
 166
 167
 168
 169
 170
 171
 172
 173
 174
 175
 176
 177
 178
 179
 180
 181
 182
 183
 184
 185
 186
 187
 188
 189
 190
 191
 192
 193
 194
 195
 196
 197
 198
 199
 200
 201
 202
 203
 204
 205
 206
 207
 208
 209
 210
 211
 212
 213
 214
 215
 216
 217
 218
 219
 220
 221
 222
 223
 224
 225
 226
 227
 228
 229
 230
 231
 232
 233
 234
 235
 236
 237
 238
 239
 240
 241
 242
 243
 244
 245
 246
 247
 248
 249
 250
 251
 252
 253
 254
 255
 256
 257
 258
 259
 260
 261
 262
 263
 264
 265
 266
 267
 268
 269
 270
 271
 272
 273
 274
 275
 276
 277
 278
 279
 280
 281
 282
 283
 284
 285
 286
 287
 288
 289
 290
 291
 292
 293
 294
 295
 296
 297
 298
 299
 300
 301
 302
 303
 304
 305
 306
 307
 308
 309
 310
 311
 312
 313
 314
 315
 316
 317
 318
 319
 320
 321
 322
 323
 324
 325
 326
 327
 328
 329
 330
 331
 332
 333
 334
 335
 336
 337
 338
 339
 340
 341
 342
 343
 344
 345
 346
 347
 348
 349
 350
 351
 352
 353
 354
 355
 356
 357
 358
 359
 360
 361
 362
 363
 364
 365
 366
 367
 368
 369
 370
 371
 372
 373
 374
 375
 376
 377
 378
 379
 380
 381
 382
 383
 384
 385
 386
 387
 388
 389
 390
 391
 392
 393
 394
 395
 396
 397
 398
 399
 400
 401
 402
 403
 404
 405
 406
 407
 408
 409
 410
 411
 412
 413
 414
 415
 416
 417
 418
 419
 420
 421
 422
 423
 424
 425
 426
 427
 428
 429
 430
 431
 432
 433
 434
 435
 436
 437
 438
 439
 440
Eabs 1 441 double
 0.47035
 0.574169
 0.622082
 0.64154
 0.700394
 0.702207
 0.721393
 0.819607
 0.786583
 0.737351
 0.727693
 0.737351
 0.786583
 0.819607
 0.721393
 0.702207
 0.700394
 0.64154
 0.622082
 0.597552
 0.549909
 0.696039
 0.486054
 0.648644
 0.721235
 0.708253
 0.813288
 0.749294
 0.931811
 0.819903
 0.762404
 0.783543
 0.762404
 0.819903
 0.931811
 0.749294
 0.813288
 0.708253
 0.721235
 0.648644
 0.62707
 0.597552
 0.471549
 0.776621
 0.641727
 0.770454
 0.727693
 0.930181
 0.825912
 1.00415
 0.814227
 1.07106
 1.14282
 1.07106
 0.814227
 1.00415
 0.825912
 0.930181
 0.727693
 0.770454
 0.71701
 0.648644
 0.622082
 0.774341
 0.569098
 0.683476
 0.962358
 0.819903
 1.0401
 1.07106
 0.825986
 1.30405
 0.961122
 0.861531
 0.961122
 1.30405
 0.825986
 1.07106
 1.0401
 0.819903
 0.732662
 0.770454
 0.721235
 0.64154
 0.558389
 0.838157
 0.953955
 0.950142
 0.938448
 1.08635
 1.25738
 1.43576
 1.15882
 1.45973
 1.1491
 1.45973
 1.15882
 1.43576
 1.25738
 1.08635
 0.947079
 0.819903
 0.727693
 0.708253
 0.700394
 0.763782
 0.660497
 0.655444
 0.735484
 0.945288
 1.28031
 1.19523
 1.20653
 1.20658
 1.42217
 1.10801
 1.42217
 1.20658
 1.20653
 0.921148
 0.961122
 1.08635
 1.0401
 0.930181
 0.813288
 0.702207
 0.808202
 0.941197
 0.999795
 0.881647
 0.92872
 1.47549
 1.09975
 1.51911
 2.01209
 2.03381
 2.18946
 2.03381
 2.01209
 1.10801
 1.71353
 0.921148
 1.25738
 1.07106
 0.825912
 0.749294
 0.721393
 0.570398
 0.627138
 0.827712
 1.26128
 0.900509
 1.47829
 1.84817
 2.13107
 2.0702
 2.27362
 2.53686
 2.27362
 1.9547
 1.32216
 1.10801
 1.20653
 1.43576
 0.825986
 1.00415
 0.931811
 0.819607
 0.775984
 0.950142
 1.15011
 0.825834
 1.34369
 1.64431
 1.5388
 2.25486
 2.48782
 3.44753
 3.56145
 3.44753
 2.7989
 1.9547
 2.01209
 1.20658
 1.15882
 1.30405
 0.814227
 0.819903
 0.786583
 0.926045
 1.06244
 0.881647
 1.28031
 1.168
 1.63691
 1.77589
 2.4911
 2.86766
 4.04778
 5.47723
 4.47214
 3.44753
 2.27362
 2.03381
 1.42217
 1.45973
 0.961122
 1.07106
 0.762404
 0.737351
 0.727693
 0.783543
 1.14282
 0.861531
 1.1491
 1.10801
 2.18946
 2.53686
 3.56145
 5.7254
 0
 5.47723
 3.42684
 2.48597
 1.74093
 1.84817
 1.45772
 1.36615
 0.783388
 1.0454
 0.953955
 0.737351
 0.762404
 1.07106
 0.961122
 1.45973
 1.42217
 2.03381
 2.27362
 3.44753
 4.50419
 5.7254
 4.04778
 2.86766
 2.4911
 1.77589
 1.63691
 1.168
 1.28031
 0.881647
 1.06244
 0.926045
 0.786583
 0.819903
 0.814227
 1.30405
 1.15882
 1.20658
 2.01209
 1.9547
 2.7989
 3.44753
 3.56145
 2.86766
 2.7989
 2.25486
 1.5388
 1.64431
 1.34369
 0.825834
 1.15011
 0.950142
 0.775984
 0.819607
 0.931811
 1.00415
 0.825986
 1.43576
 1.20653
 1.10801
 1.32216
 1.9547
 2.27362
 2.53686
 2.4911
 2.0702
 1.32216
 1.84817
 1.47829
 0.900509
 1.26128
 0.827712
 0.627138
 0.570398
 0.721393
 0.749294
 0.825912
 1.07106
 1.25738
 0.921148
 1.71353
 1.10801
 2.01209
 2.03381
 2.18946
 1.77589
 1.5388
 1.51911
 1.71353
 1.47549
 0.92872
 0.881647
 0.999795
 0.941197
 0.808202
 0.702207
 0.813288
 0.930181
 1.0401
 1.08635
 0.961122
 0.921148
 1.20653
 1.20658
 1.42217
 1.10801
 1.63691
 1.64431
 1.47829
 1.47549
 0.961122
 0.945288
 0.735484
 0.655444
 0.660497
 0.763782
 0.700394
 0.708253
 0.727693
 0.819903
 0.947079
 1.08635
 1.25738
 1.43576
 1.15882
 1.45973
 1.1491
 1.168
 1.34369
 0.900509
 0.92872
 0.945288
 0.947079
 0.950142
 0.953955
 0.838157
 0.558389
 0.64154
 0.721235
 0.770454
 0.732662
 0.819903
 1.0401
 1.07106
 0.825986
 1.30405
 0.961122
 0.861531
 1.28031
 0.825834
 1.26128
 0.881647
 0.735484
 0.950142
 0.732662
 0.683476
 0.569098
 0.774341
 0.622082
 0.648644
 0.71701
 0.770454
 0.727693
 0.930181
 0.825912
 1.00415
 0.814227
 1.07106
 1.14282
 0.881647
 1.15011
 0.827712
 0.999795
 0.655444
 0.953955
 0.683476
 0.71701
 0.776621
 0.471549
 0.597552
 0.62707
 0.648644
 0.721235
 0.708253
 0.813288
 0.749294
 0.931811
 0.819903
 0.762404
 0.783543
 1.06244
 0.950142
 0.627138
 0.941197
 0.660497
 0.838157
 0.569098
 0.776621
 0.62707
 0.696039
 0.549909
 0.597552
 0.622082
 0.64154
 0.700394
 0.702207
 0.721393
 0.819607
 0.786583
 0.737351
 0.727693
 0.926045
 0.775984
 0.570398
 0.808202
 0.763782
 0.558389
 0.774341
 0.471549
 0.574169
 0.549909
EdB 1 441 double
 113.448
 115.181
 115.877
 116.144
 116.907
 116.929
 117.163
 118.272
 117.915
 117.353
 117.239
 117.353
 117.915
 118.272
 117.163
 116.929
 116.907
 116.144
 115.877
 115.528
 114.806
 116.853
 113.734
 116.24
 117.162
 117.004
 118.205
 117.493
 119.387
 118.275
 117.644
 117.881
 117.644
 118.275
 119.387
 117.493
 118.205
 117.004
 117.162
 116.24
 115.946
 115.528
 113.471
 117.804
 116.147
 117.735
 117.239
 119.371
 118.339
 120.036
 118.215
 120.596
 121.16
 120.596
 118.215
 120.036
 118.339
 119.371
 117.239
 117.735
 117.111
 116.24
 115.877
 117.779
 115.104
 116.694
 119.667
 118.275
 120.342
 120.596
 118.339
 122.306
 119.656
 118.705
 119.656
 122.306
 118.339
 120.596
 120.342
 118.275
 117.298
 117.735
 117.162
 116.144
 114.939
 118.467
 119.591
 119.556
 119.448
 120.719
 121.989
 123.142
 121.28
 123.285
 121.207
 123.285
 121.28
 123.142
 121.989
 120.719
 119.528
 118.275
 117.239
 117.004
 116.907
 117.659
 116.397
 116.331
 117.331
 119.511
 122.146
 121.549
 121.631
 121.631
 123.059
 120.891
 123.059
 121.631
 121.631
 119.287
 119.656
 120.719
 120.342
 119.371
 118.205
 116.929
 118.15
 119.474
 119.998
 118.906
 119.358
 123.379
 120.826
 123.632
 126.073
 126.166
 126.807
 126.166
 126.073
 120.891
 124.678
 119.287
 121.989
 120.596
 118.339
 117.493
 117.163
 115.124
 115.947
 118.358
 122.016
 119.09
 123.395
 125.335
 126.572
 126.32
 127.134
 128.086
 127.134
 125.822
 122.426
 120.891
 121.631
 123.142
 118.339
 120.036
 119.387
 118.272
 117.797
 119.556
 121.215
 118.338
 122.566
 124.32
 123.744
 127.062
 127.916
 130.75
 131.033
 130.75
 128.94
 125.822
 126.073
 121.631
 121.28
 122.306
 118.215
 118.275
 117.915
 119.333
 120.526
 118.906
 122.146
 121.349
 124.281
 124.988
 127.928
 129.151
 132.144
 134.771
 133.01
 130.75
 127.134
 126.166
 123.059
 123.285
 119.656
 120.596
 117.644
 117.353
 117.239
 117.881
 121.16
 118.705
 121.207
 120.891
 126.807
 128.086
 131.033
 135.156
 -300
 134.771
 130.698
 127.91
 124.816
 125.335
 123.273
 122.71
 117.88
 120.386
 119.591
 117.353
 117.644
 120.596
 119.656
 123.285
 123.059
 126.166
 127.134
 130.75
 133.072
 135.156
 132.144
 129.151
 127.928
 124.988
 124.281
 121.349
 122.146
 118.906
 120.526
 119.333
 117.915
 118.275
 118.215
 122.306
 121.28
 121.631
 126.073
 125.822
 128.94
 130.75
 131.033
 129.151
 128.94
 127.062
 123.744
 124.32
 122.566
 118.338
 121.215
 119.556
 117.797
 118.272
 119.387
 120.036
 118.339
 123.142
 121.631
 120.891
 122.426
 125.822
 127.134
 128.086
 127.928
 126.32
 122.426
 125.335
 123.395
 119.09
 122.016
 118.358
 115.947
 115.124
 117.163
 117.493
 118.339
 120.596
 121.989
 119.287
 124.678
 120.891
 126.073
 126.166
 126.807
 124.988
 123.744
 123.632
 124.678
 123.379
 119.358
 118.906
 119.998
 119.474
 118.15
 116.929
 118.205
 119.371
 120.342
 120.719
 119.656
 119.287
 121.631
 121.631
 123.059
 120.891
 124.281
 124.32
 123.395
 123.379
 119.656
 119.511
 117.331
 116.331
 116.397
 117.659
 116.907
 117.004
 117.239
 118.275
 119.528
 120.719
 121.989
 123.142
 121.28
 123.285
 121.207
 121.349
 122.566
 119.09
 119.358
 119.511
 119.528
 119.556
 119.591
 118.467
 114.939
 116.144
 117.162
 117.735
 117.298
 118.275
 120.342
 120.596
 118.339
 122.306
 119.656
 118.705
 122.146
 118.338
 122.016
 118.906
 117.331
 119.556
 117.298
 116.694
 115.104
 117.779
 115.877
 116.24
 117.111
 117.735
 117.239
 119.371
 118.339
 120.036
 118.215
 120.596
 121.16
 118.906
 121.215
 118.358
 119.998
 116.331
 119.591
 116.694
 117.111
 117.804
 113.471
 115.528
 115.946
 116.24
 117.162
 117.004
 118.205
 117.493
 119.387
 118.275
 117.644
 117.881
 120.526
 119.556
 115.947
 119.474
 116.397
 118.467
 115.104
 117.804
 115.946
 116.853
 114.806
 115.528
 115.877
 116.144
 116.907
 116.929
 117.163
 118.272
 117.915
 117.353
 117.239
 119.333
 117.797
 115.124
 118.15
 117.659
 114.939
 117.779
 113.471
 115.181
 114.806
Phase 1 441 double
 5.92287
 6.27448
 3.91881
 -0.213897
 1.61446
 3.47878
 -3.51027
 -5.75097
 1.37772
 -1.74827
 2.47567
 1.39332
 4.51931
 -2.60937
 -0.368678
 0.337185
 -1.52713
 2.9277
 0.777219
 5.74173
 0.291432
 5.93514
 -3.669
 -1.62713
 -1.56368
 4.12193
 3.49432
 0.248615
 1.01528
 -2.05702
 -3.96393
 0.814023
 -0.822339
 1.08458
 -2.12631
 -2.89298
 0.352727
 0.980337
 1.57792
 1.51446
 3.07233
 5.74173
 7.02863
 1.74584
 4.37701
 5.2481
 3.45049
 -5.93986
 7.50738
 -0.643517
 -1.4196
 -1.10686
 -1.56029
 2.03473
 1.72199
 2.49808
 4.36578
 -2.79826
 0.308894
 2.1065
 -1.46042
 1.51446
 0.777219
 2.77194
 -5.18422
 2.50929
 -1.73765
 -2.05702
 5.80093
 -1.10686
 7.31747
 3.89168
 -5.89982
 0.866878
 -2.75822
 0.750087
 4.17588
 2.03473
 2.65934
 1.08458
 -1.88701
 2.1065
 1.57792
 2.9277
 5.24884
 1.27773
 0.169593
 0.805663
 2.10045
 -0.0599039
 -1.59469
 -0.988228
 -0.604933
 5.15194
 1.63216
 2.01035
 -3.74653
 2.15336
 1.54691
 -3.2015
 -3.89609
 1.08458
 0.308894
 0.980337
 -1.52713
 -0.0289369
 6.22176
 -3.16948
 -4.01122
 2.75418
 -3.18527
 -4.61242
 -2.15308
 -2.994
 1.51732
 1.91769
 -1.62427
 0.147596
 -5.29467
 0.565798
 -2.75822
 -3.2015
 2.65934
 -2.79826
 0.352727
 0.337185
 -6.31789
 3.63424
 4.63496
 -3.90695
 -5.16667
 -4.89486
 -0.702049
 0.968296
 -2.94108
 -2.15637
 -0.246099
 -5.29796
 -6.08267
 4.41506
 6.20504
 0.565798
 1.54691
 2.03473
 4.36578
 -2.89298
 -0.368678
 -8.88469
 4.06513
 -4.12644
 4.11267
 -4.0216
 1.78034
 0.790419
 3.16927
 -2.49102
 -4.38905
 3.33858
 -1.24746
 0.259787
 -0.222419
 4.41506
 -5.29467
 2.15336
 4.17588
 2.49808
 -2.12631
 -2.60937
 -2.10973
 0.805663
 -4.34257
 6.87102
 3.08198
 -4.87803
 1.43558
 -1.75759
 5.26143
 -0.796576
 -2.335
 2.34502
 -3.29258
 0.259787
 -6.08267
 0.147596
 -3.74653
 0.750087
 1.72199
 1.08458
 4.51931
 1.15439
 -0.761429
 -3.90695
 -3.18527
 -4.84137
 3.54117
 2.44529
 -5.34768
 -1.16828
 -1.29736
 -3.03045
 -4.38879
 2.34502
 -1.24746
 -5.29796
 -1.62427
 2.01035
 -2.75822
 2.03473
 -0.822339
 1.39332
 1.4381
 -1.27772
 -5.95801
 -1.10091
 6.46589
 4.90368
 4.26481
 -0.440459
 -6.01379
 -5.10186
 0
 -2.97488
 -2.16793
 -5.34842
 -0.540804
 -0.0869675
 -0.600613
 -2.22251
 2.31416
 -0.150225
 0.462418
 1.39332
 -0.822339
 2.03473
 -2.75822
 2.01035
 -1.62427
 -5.29796
 -1.24746
 2.34502
 -4.39837
 -1.95483
 -1.29736
 -1.16828
 -5.34768
 2.44529
 3.54117
 -4.84137
 -3.18527
 -3.90695
 -0.761429
 1.15439
 4.51931
 1.08458
 1.72199
 0.750087
 -3.74653
 0.147596
 -6.08267
 0.259787
 -3.29258
 2.34502
 -2.87502
 -1.16828
 -6.43418
 -1.75759
 1.43558
 -4.87803
 3.08198
 6.87102
 -4.34257
 0.805663
 -2.10973
 -2.60937
 -2.12631
 2.49808
 4.17588
 2.15336
 -5.29467
 4.41506
 -0.222419
 0.259787
 -1.24746
 2.702
 -5.34768
 -2.49102
 2.91917
 0.790419
 1.78034
 -4.0216
 4.11267
 -4.12644
 4.06513
 -8.88469
 -0.368678
 -2.89298
 4.36578
 2.03473
 1.54691
 0.565798
 6.20504
 4.41506
 -6.08267
 -5.29796
 1.12319
 2.44529
 1.43558
 0.968296
 3.06345
 -4.89486
 -5.16667
 -3.90695
 4.63496
 3.63424
 -6.31789
 0.337185
 0.352727
 -2.79826
 2.65934
 -3.2015
 -2.75822
 0.565798
 -5.29467
 0.147596
 -1.62427
 1.76242
 3.54117
 -4.87803
 1.78034
 -4.89486
 -5.89982
 2.75418
 -4.01122
 -3.16948
 6.22176
 -0.0289369
 -1.52713
 0.980337
 0.308894
 1.08458
 -3.89609
 -3.2015
 1.54691
 2.15336
 -3.74653
 2.01035
 3.32495
 -4.84137
 3.08198
 -4.0216
 -5.16667
 2.75418
 -0.754499
 0.805663
 0.169593
 1.27773
 5.24884
 2.9277
 1.57792
 2.1065
 -1.88701
 1.08458
 2.65934
 2.03473
 4.17588
 0.750087
 -2.75822
 2.04116
 -3.18527
 6.87102
 4.11267
 -3.90695
 -4.01122
 0.805663
 -5.0286
 2.50929
 -5.18422
 2.77194
 0.777219
 1.51446
 -1.46042
 2.1065
 0.308894
 -2.79826
 4.36578
 2.49808
 1.72199
 2.03473
 -2.81719
 -3.90695
 -4.34257
 -4.12644
 4.63496
 -3.16948
 0.169593
 2.50929
 1.68117
 1.74584
 7.02863
 5.74173
 3.07233
 1.51446
 1.57792
 0.980337
 0.352727
 -2.89298
 -2.12631
 1.08458
 -0.822339
 1.86398
 -0.761429
 0.805663
 4.06513
 3.63424
 6.22176
 1.27773
 -5.18422
 1.74584
 -0.0692594
 5.93514
 0.291432
 5.74173
 0.777219
 2.9277
 -1.52713
 0.337185
 -0.368678
 -2.60937
 4.51931
 1.39332
 4.58028
 1.15439
 -2.10973
 -8.88469
 -6.31789
 -0.0289369
 5.24884
 2.77194
 7.02863
 6.27448
 3.43302
