# vtk DataFile Version 2.0
Ray Path Visualization
ASCII
DATASET POLYDATA

POINTS 200 float
 0 0 3
 0 1 3
 0 2 3
 0 3 3
 0 4 3
 0 5 3
 0 6 3
 0 7 3
 0 8 3
 0 9 3
 0 10 3
 0 11 3
 0 12 3
 0 13 3
 0 14 3
 0 15 3
 0 16 3
 0 17 3
 0 18 3
 0 19 3
 0 20 3
 0 21 3
 0 22 3
 0 23 3
 0 24 3
 0 25 3
 0 26 3
 0 27 3
 0 28 3
 0 29 3
 0 30 3
 0 31 3
 0 32 3
 0 33 3
 0 34 3
 0 35 3
 0 36 3
 0 37 3
 0 38 3
 0 39 3
 0 40 3
 0 41 3
 0 42 3
 0 43 3
 0 44 3
 0 45 3
 0 46 3
 0 47 3
 0 48 3
 0 49 3
 0 50 3
 0 51 3
 0 52 3
 0 53 3
 0 54 3
 0 55 3
 0 56 3
 0 57 3
 0 58 3
 0 59 3
 0 60 3
 0 61 3
 0 62 3
 0 63 3
 0 64 3
 0 65 3
 0 66 3
 0 67 3
 0 68 3
 0 69 3
 0 70 3
 0 71 3
 0 72 3
 0 73 3
 0 74 3
 0 75 3
 0 76 3
 0 77 3
 0 78 3
 0 79 3
 0 80 3
 0 81 3
 0 82 3
 0 83 3
 0 84 3
 0 85 3
 0 86 3
 0 87 3
 0 88 3
 0 89 3
 0 90 3
 0 91 3
 0 92 3
 0 93 3
 0 94 3
 0 95 3
 0 96 3
 0 97 3
 0 98 3
 0 99 3
 0 100 3
 0 101 3
 0 102 3
 0 103 3
 0 104 3
 0 105 3
 0 106 3
 0 107 3
 0 108 3
 0 109 3
 0 110 3
 0 111 3
 0 112 3
 0 113 3
 0 114 3
 0 115 3
 0 116 3
 0 117 3
 0 118 3
 0 119 3
 0 120 3
 0 121 3
 0 122 3
 0 123 3
 0 124 3
 0 125 3
 0 126 3
 0 127 3
 0 128 3
 0 129 3
 0 130 3
 0 131 3
 0 132 3
 0 133 3
 0 134 3
 0 135 3
 0 136 3
 0 137 3
 0 138 3
 0 139 3
 0 140 3
 0 141 3
 0 142 3
 0 143 3
 0 144 3
 0 145 3
 0 146 3
 0 147 3
 0 148 3
 0 149 3
 0 150 3
 0 151 3
 0 152 3
 0 153 3
 0 154 3
 0 155 3
 0 156 3
 0 157 3
 0 158 3
 0 159 3
 0 160 3
 0 161 3
 0 162 3
 0 163 3
 0 164 3
 0 165 3
 0 166 3
 0 167 3
 0 168 3
 0 169 3
 0 170 3
 0 171 3
 0 172 3
 0 173 3
 0 174 3
 0 175 3
 0 176 3
 0 177 3
 0 178 3
 0 179 3
 0 180 3
 0 181 3
 0 182 3
 0 183 3
 0 184 3
 0 185 3
 0 186 3
 0 187 3
 0 188 3
 0 189 3
 0 190 3
 0 191 3
 0 192 3
 0 193 3
 0 194 3
 0 195 3
 0 196 3
 0 197 3
 0 198 3
 0 199 3
VERTICES 1 201
200
 0 1 2 3 4
 5 6 7 8 9
 10 11 12 13 14
 15 16 17 18 19
 20 21 22 23 24
 25 26 27 28 29
 30 31 32 33 34
 35 36 37 38 39
 40 41 42 43 44
 45 46 47 48 49
 50 51 52 53 54
 55 56 57 58 59
 60 61 62 63 64
 65 66 67 68 69
 70 71 72 73 74
 75 76 77 78 79
 80 81 82 83 84
 85 86 87 88 89
 90 91 92 93 94
 95 96 97 98 99
 100 101 102 103 104
 105 106 107 108 109
 110 111 112 113 114
 115 116 117 118 119
 120 121 122 123 124
 125 126 127 128 129
 130 131 132 133 134
 135 136 137 138 139
 140 141 142 143 144
 145 146 147 148 149
 150 151 152 153 154
 155 156 157 158 159
 160 161 162 163 164
 165 166 167 168 169
 170 171 172 173 174
 175 176 177 178 179
 180 181 182 183 184
 185 186 187 188 189
 190 191 192 193 194
 195 196 197 198 199

POINT_DATA 200
FIELD FieldData 4
ReceiverID 1 200 int
 0
 1
 2
 3
 4
 5
 6
 7
 8
 9
 10
 11
 12
 13
 14
 15
 16
 17
 18
 19
 20
 21
 22
 23
 24
 25
 26
 27
 28
 29
 30
 31
 32
 33
 34
 35
 36
 37
 38
 39
 40
 41
 42
 43
 44
 45
 46
 47
 48
 49
 50
 51
 52
 53
 54
 55
 56
 57
 58
 59
 60
 61
 62
 63
 64
 65
 66
 67
 68
 69
 70
 71
 72
 73
 74
 75
 76
 77
 78
 79
 80
 81
 82
 83
 84
 85
 86
 87
 88
 89
 90
 91
 92
 93
 94
 95
 96
 97
 98
 99
 100
 101
 102
 103
 104
 105
 106
 107
 108
 109
 110
 111
 112
 113
 114
 115
 116
 117
 118
 119
 120
 121
 122
 123
 124
 125
 126
 127
 128
 129
 130
 131
 132
 133
 134
 135
 136
 137
 138
 139
 140
 141
 142
 143
 144
 145
 146
 147
 148
 149
 150
 151
 152
 153
 154
 155
 156
 157
 158
 159
 160
 161
 162
 163
 164
 165
 166
 167
 168
 169
 170
 171
 172
 173
 174
 175
 176
 177
 178
 179
 180
 181
 182
 183
 184
 185
 186
 187
 188
 189
 190
 191
 192
 193
 194
 195
 196
 197
 198
 199
Eabs 1 200 double
 0
 1.8469
 2.3832
 2.14432
 2.01489
 1.56697
 1.64702
 1.43185
 0.96104
 1.15859
 0.868996
 0.769085
 0.731184
 0.712827
 0.691453
 0.634556
 0.599731
 0.546682
 0.547707
 0.480288
 0.491254
 0.457212
 0.407508
 0.438066
 0.405365
 0.350745
 0.364311
 0.38011
 0.348626
 0.304557
 0.295708
 0.313279
 0.320828
 0.305151
 0.275853
 0.251114
 0.243188
 0.249316
 0.258189
 0.261137
 0.25538
 0.24248
 0.226243
 0.210992
 0.200118
 0.194986
 0.19475
 0.197243
 0.200188
 0.201925
 0.201578
 0.198926
 0.194205
 0.187925
 0.180727
 0.173271
 0.166158
 0.159862
 0.154698
 0.150797
 0.148122
 0.146508
 0.145707
 0.145445
 0.145462
 0.145535
 0.145491
 0.145209
 0.144616
 0.143675
 0.142381
 0.140754
 0.138827
 0.136645
 0.134261
 0.131726
 0.129094
 0.126416
 0.123738
 0.1211
 0.118539
 0.116083
 0.113755
 0.111572
 0.109545
 0.107679
 0.105974
 0.104428
 0.103033
 0.10178
 0.100657
 0.099651
 0.0987489
 0.0979369
 0.0972014
 0.0965295
 0.0959092
 0.0953294
 0.0947799
 0.0942521
 0.093738
 0.0932311
 0.0927258
 0.0922175
 0.0917024
 0.0911778
 0.0906413
 0.0900915
 0.0895274
 0.0889484
 0.0883545
 0.0877459
 0.0871232
 0.0864869
 0.0858381
 0.0851778
 0.0845072
 0.0838274
 0.0831397
 0.0824454
 0.0817458
 0.0810422
 0.0803358
 0.0796278
 0.0789193
 0.0782115
 0.0775054
 0.076802
 0.0761022
 0.075407
 0.074717
 0.074033
 0.0733556
 0.0726856
 0.0707815
 0.0702574
 0.069741
 0.0692322
 0.0687307
 0.0682365
 0.0677493
 0.067269
 0.0667954
 0.0663285
 0.0658681
 0.065414
 0.0649661
 0.0645243
 0.0640885
 0.0636586
 0.0632343
 0.0628157
 0.0624026
 0.0619949
 0.0615924
 0.0611952
 0.060803
 0.0604159
 0.0600336
 0.0596562
 0.0592834
 0.0589153
 0.0585518
 0.0581927
 0.0578379
 0.0574875
 0.0571413
 0.0567992
 0.0564612
 0.0561272
 0.0557972
 0.055471
 0.0551485
 0.0548299
 0.0545148
 0.0542034
 0.0538955
 0.0535911
 0.0532901
 0.0529925
 0.0526981
 0.052407
 0.0521192
 0.0518344
 0.0515528
 0.0512742
 0.0509986
 0.0507259
 0.0504562
 0.0501893
 0.0499252
 0.0496638
 0.0494052
 0.0491493
 0.048896
 0.0486453
 0.0483972
 0.0481515
 0.0479084
 0.0476677
EdB 1 200 double
 -300
 125.329
 127.543
 126.626
 126.085
 123.901
 124.334
 123.118
 119.655
 121.279
 118.78
 117.719
 117.281
 117.06
 116.795
 116.049
 115.559
 114.755
 114.771
 113.63
 113.826
 113.202
 112.203
 112.831
 112.157
 110.9
 111.229
 111.598
 110.847
 109.673
 109.417
 109.919
 110.125
 109.69
 108.814
 107.997
 107.719
 107.935
 108.239
 108.337
 108.144
 107.694
 107.092
 106.485
 106.026
 105.8
 105.79
 105.9
 106.029
 106.104
 106.089
 105.974
 105.765
 105.48
 105.14
 104.775
 104.41
 104.075
 103.79
 103.568
 103.412
 103.317
 103.27
 103.254
 103.255
 103.259
 103.257
 103.24
 103.204
 103.148
 103.069
 102.969
 102.849
 102.712
 102.559
 102.393
 102.218
 102.036
 101.85
 101.663
 101.477
 101.295
 101.119
 100.951
 100.792
 100.643
 100.504
 100.376
 100.26
 100.153
 100.057
 99.9696
 99.8906
 99.8189
 99.7534
 99.6932
 99.6372
 99.5845
 99.5343
 99.4858
 99.4383
 99.3912
 99.344
 99.2963
 99.2476
 99.1978
 99.1465
 99.0937
 99.0391
 98.9828
 98.9246
 98.8645
 98.8027
 98.739
 98.6736
 98.6065
 98.5379
 98.4677
 98.3962
 98.3233
 98.2493
 98.1742
 98.0982
 98.0213
 97.9437
 97.8654
 97.7866
 97.7075
 97.6279
 97.5482
 97.4684
 97.3885
 97.3087
 97.229
 96.9984
 96.9338
 96.8698
 96.8062
 96.743
 96.6803
 96.6181
 96.5563
 96.4949
 96.434
 96.3735
 96.3134
 96.2537
 96.1945
 96.1356
 96.0771
 96.0191
 95.9614
 95.904
 95.8471
 95.7905
 95.7343
 95.6785
 95.623
 95.5679
 95.5131
 95.4587
 95.4046
 95.3508
 95.2974
 95.2443
 95.1915
 95.139
 95.0868
 95.035
 94.9835
 94.9322
 94.8813
 94.8307
 94.7803
 94.7303
 94.6805
 94.6311
 94.5819
 94.5329
 94.4843
 94.4359
 94.3878
 94.3399
 94.2924
 94.245
 94.198
 94.1512
 94.1046
 94.0583
 94.0122
 93.9664
 93.9208
 93.8755
 93.8303
 93.7855
 93.7408
 93.6964
 93.6522
 93.6082
 93.5645
Phase 1 200 double
 0
 6.10679
 -4.38654
 1.93723
 -1.74737
 7.2272
 -4.53302
 0.046961
 1.7679
 7.8696
 -6.18778
 -2.39681
 -0.783344
 -1.18259
 -2.20107
 -3.94586
 3.06109
 -0.746022
 5.75605
 0.181798
 4.67105
 -0.696587
 2.83006
 0.422058
 0.15642
 2.99098
 5.46629
 -3.28121
 1.20865
 3.35471
 5.08474
 6.91533
 -2.94105
 1.21687
 3.02513
 4.34997
 5.49193
 6.61578
 1.5594
 -3.16697
 0.823941
 2.46142
 3.5365
 4.39439
 5.13144
 5.80085
 6.44085
 7.07789
 1.44846
 2.14184
 2.89549
 3.07773
 2.1005
 2.79684
 3.39482
 3.90097
 4.34323
 4.7389
 5.09918
 5.43227
 5.74467
 6.04146
 6.32639
 6.60201
 6.86984
 7.13066
 7.38471
 1.34852
 1.58725
 1.8135
 2.01354
 2.15368
 2.23824
 2.38414
 2.58638
 2.78891
 2.97695
 3.15032
 3.31086
 3.46019
 3.59952
 3.72978
 3.8517
 3.96591
 4.07297
 4.17337
 4.26758
 4.356
 4.439
 4.51693
 4.59005
 4.65862
 4.72283
 4.78283
 4.83873
 4.8906
 4.93846
 4.9823
 5.02207
 5.05769
 5.08903
 5.11593
 5.13819
 5.15557
 5.16781
 5.17457
 5.17551
 5.17022
 5.15828
 5.13924
 5.11264
 5.07804
 5.03506
 4.98336
 4.92266
 4.85259
 4.77218
 4.67835
 4.55951
 4.35126
 2.72147
 1.54297
 1.35963
 1.25065
 1.16463
 1.09051
 1.02437
 0.964327
 0.909208
 0.858172
 0.81055
 0.765785
 0.723399
 0.682981
 1.95645
 1.89067
 1.8247
 1.75855
 1.69223
 1.62573
 1.55906
 1.49223
 1.42524
 1.35809
 1.29078
 1.22333
 1.15572
 1.08797
 1.02008
 0.952047
 0.883877
 0.815574
 0.747139
 0.678575
 0.609884
 0.54107
 0.472135
 0.40308
 0.333908
 0.264621
 0.195222
 0.125712
 0.0560939
 -0.0136308
 -0.08346
 -0.153392
 -0.223424
 -0.293556
 -0.363785
 -0.434109
 -0.504527
 -0.575037
 -0.645637
 -0.716327
 -0.787104
 -0.857966
 -0.928914
 -0.999944
 -1.07106
 -1.14225
 -1.21352
 -1.28487
 -1.35629
 -1.42779
 -1.49937
 -1.57101
 -1.64273
 -1.71452
 -1.78638
 -1.8583
 -1.9303
 -2.00236
 -2.07448
 -2.14667
 -2.21892
 -2.29123
 -2.3636
 -2.43604
 -2.50853
 -2.58108
