# vtk DataFile Version 2.0
Ray Path Visualization
ASCII
DATASET POLYDATA

POINTS 441 float
 -10 -10 3
 -10 -9 3
 -10 -8 3
 -10 -7 3
 -10 -6 3
 -10 -5 3
 -10 -4 3
 -10 -3 3
 -10 -2 3
 -10 -1 3
 -10 0 3
 -10 1 3
 -10 2 3
 -10 3 3
 -10 4 3
 -10 5 3
 -10 6 3
 -10 7 3
 -10 8 3
 -10 9 3
 -10 10 3
 -9 -10 3
 -9 -9 3
 -9 -8 3
 -9 -7 3
 -9 -6 3
 -9 -5 3
 -9 -4 3
 -9 -3 3
 -9 -2 3
 -9 -1 3
 -9 0 3
 -9 1 3
 -9 2 3
 -9 3 3
 -9 4 3
 -9 5 3
 -9 6 3
 -9 7 3
 -9 8 3
 -9 9 3
 -9 10 3
 -8 -10 3
 -8 -9 3
 -8 -8 3
 -8 -7 3
 -8 -6 3
 -8 -5 3
 -8 -4 3
 -8 -3 3
 -8 -2 3
 -8 -1 3
 -8 0 3
 -8 1 3
 -8 2 3
 -8 3 3
 -8 4 3
 -8 5 3
 -8 6 3
 -8 7 3
 -8 8 3
 -8 9 3
 -8 10 3
 -7 -10 3
 -7 -9 3
 -7 -8 3
 -7 -7 3
 -7 -6 3
 -7 -5 3
 -7 -4 3
 -7 -3 3
 -7 -2 3
 -7 -1 3
 -7 0 3
 -7 1 3
 -7 2 3
 -7 3 3
 -7 4 3
 -7 5 3
 -7 6 3
 -7 7 3
 -7 8 3
 -7 9 3
 -7 10 3
 -6 -10 3
 -6 -9 3
 -6 -8 3
 -6 -7 3
 -6 -6 3
 -6 -5 3
 -6 -4 3
 -6 -3 3
 -6 -2 3
 -6 -1 3
 -6 0 3
 -6 1 3
 -6 2 3
 -6 3 3
 -6 4 3
 -6 5 3
 -6 6 3
 -6 7 3
 -6 8 3
 -6 9 3
 -6 10 3
 -5 -10 3
 -5 -9 3
 -5 -8 3
 -5 -7 3
 -5 -6 3
 -5 -5 3
 -5 -4 3
 -5 -3 3
 -5 -2 3
 -5 -1 3
 -5 0 3
 -5 1 3
 -5 2 3
 -5 3 3
 -5 4 3
 -5 5 3
 -5 6 3
 -5 7 3
 -5 8 3
 -5 9 3
 -5 10 3
 -4 -10 3
 -4 -9 3
 -4 -8 3
 -4 -7 3
 -4 -6 3
 -4 -5 3
 -4 -4 3
 -4 -3 3
 -4 -2 3
 -4 -1 3
 -4 0 3
 -4 1 3
 -4 2 3
 -4 3 3
 -4 4 3
 -4 5 3
 -4 6 3
 -4 7 3
 -4 8 3
 -4 9 3
 -4 10 3
 -3 -10 3
 -3 -9 3
 -3 -8 3
 -3 -7 3
 -3 -6 3
 -3 -5 3
 -3 -4 3
 -3 -3 3
 -3 -2 3
 -3 -1 3
 -3 0 3
 -3 1 3
 -3 2 3
 -3 3 3
 -3 4 3
 -3 5 3
 -3 6 3
 -3 7 3
 -3 8 3
 -3 9 3
 -3 10 3
 -2 -10 3
 -2 -9 3
 -2 -8 3
 -2 -7 3
 -2 -6 3
 -2 -5 3
 -2 -4 3
 -2 -3 3
 -2 -2 3
 -2 -1 3
 -2 0 3
 -2 1 3
 -2 2 3
 -2 3 3
 -2 4 3
 -2 5 3
 -2 6 3
 -2 7 3
 -2 8 3
 -2 9 3
 -2 10 3
 -1 -10 3
 -1 -9 3
 -1 -8 3
 -1 -7 3
 -1 -6 3
 -1 -5 3
 -1 -4 3
 -1 -3 3
 -1 -2 3
 -1 -1 3
 -1 0 3
 -1 1 3
 -1 2 3
 -1 3 3
 -1 4 3
 -1 5 3
 -1 6 3
 -1 7 3
 -1 8 3
 -1 9 3
 -1 10 3
 0 -10 3
 0 -9 3
 0 -8 3
 0 -7 3
 0 -6 3
 0 -5 3
 0 -4 3
 0 -3 3
 0 -2 3
 0 -1 3
 0 0 3
 0 1 3
 0 2 3
 0 3 3
 0 4 3
 0 5 3
 0 6 3
 0 7 3
 0 8 3
 0 9 3
 0 10 3
 1 -10 3
 1 -9 3
 1 -8 3
 1 -7 3
 1 -6 3
 1 -5 3
 1 -4 3
 1 -3 3
 1 -2 3
 1 -1 3
 1 0 3
 1 1 3
 1 2 3
 1 3 3
 1 4 3
 1 5 3
 1 6 3
 1 7 3
 1 8 3
 1 9 3
 1 10 3
 2 -10 3
 2 -9 3
 2 -8 3
 2 -7 3
 2 -6 3
 2 -5 3
 2 -4 3
 2 -3 3
 2 -2 3
 2 -1 3
 2 0 3
 2 1 3
 2 2 3
 2 3 3
 2 4 3
 2 5 3
 2 6 3
 2 7 3
 2 8 3
 2 9 3
 2 10 3
 3 -10 3
 3 -9 3
 3 -8 3
 3 -7 3
 3 -6 3
 3 -5 3
 3 -4 3
 3 -3 3
 3 -2 3
 3 -1 3
 3 0 3
 3 1 3
 3 2 3
 3 3 3
 3 4 3
 3 5 3
 3 6 3
 3 7 3
 3 8 3
 3 9 3
 3 10 3
 4 -10 3
 4 -9 3
 4 -8 3
 4 -7 3
 4 -6 3
 4 -5 3
 4 -4 3
 4 -3 3
 4 -2 3
 4 -1 3
 4 0 3
 4 1 3
 4 2 3
 4 3 3
 4 4 3
 4 5 3
 4 6 3
 4 7 3
 4 8 3
 4 9 3
 4 10 3
 5 -10 3
 5 -9 3
 5 -8 3
 5 -7 3
 5 -6 3
 5 -5 3
 5 -4 3
 5 -3 3
 5 -2 3
 5 -1 3
 5 0 3
 5 1 3
 5 2 3
 5 3 3
 5 4 3
 5 5 3
 5 6 3
 5 7 3
 5 8 3
 5 9 3
 5 10 3
 6 -10 3
 6 -9 3
 6 -8 3
 6 -7 3
 6 -6 3
 6 -5 3
 6 -4 3
 6 -3 3
 6 -2 3
 6 -1 3
 6 0 3
 6 1 3
 6 2 3
 6 3 3
 6 4 3
 6 5 3
 6 6 3
 6 7 3
 6 8 3
 6 9 3
 6 10 3
 7 -10 3
 7 -9 3
 7 -8 3
 7 -7 3
 7 -6 3
 7 -5 3
 7 -4 3
 7 -3 3
 7 -2 3
 7 -1 3
 7 0 3
 7 1 3
 7 2 3
 7 3 3
 7 4 3
 7 5 3
 7 6 3
 7 7 3
 7 8 3
 7 9 3
 7 10 3
 8 -10 3
 8 -9 3
 8 -8 3
 8 -7 3
 8 -6 3
 8 -5 3
 8 -4 3
 8 -3 3
 8 -2 3
 8 -1 3
 8 0 3
 8 1 3
 8 2 3
 8 3 3
 8 4 3
 8 5 3
 8 6 3
 8 7 3
 8 8 3
 8 9 3
 8 10 3
 9 -10 3
 9 -9 3
 9 -8 3
 9 -7 3
 9 -6 3
 9 -5 3
 9 -4 3
 9 -3 3
 9 -2 3
 9 -1 3
 9 0 3
 9 1 3
 9 2 3
 9 3 3
 9 4 3
 9 5 3
 9 6 3
 9 7 3
 9 8 3
 9 9 3
 9 10 3
 10 -10 3
 10 -9 3
 10 -8 3
 10 -7 3
 10 -6 3
 10 -5 3
 10 -4 3
 10 -3 3
 10 -2 3
 10 -1 3
 10 0 3
 10 1 3
 10 2 3
 10 3 3
 10 4 3
 10 5 3
 10 6 3
 10 7 3
 10 8 3
 10 9 3
 10 10 3
VERTICES 1 442
441
 0 1 2 3 4
 5 6 7 8 9
 10 11 12 13 14
 15 16 17 18 19
 20 21 22 23 24
 25 26 27 28 29
 30 31 32 33 34
 35 36 37 38 39
 40 41 42 43 44
 45 46 47 48 49
 50 51 52 53 54
 55 56 57 58 59
 60 61 62 63 64
 65 66 67 68 69
 70 71 72 73 74
 75 76 77 78 79
 80 81 82 83 84
 85 86 87 88 89
 90 91 92 93 94
 95 96 97 98 99
 100 101 102 103 104
 105 106 107 108 109
 110 111 112 113 114
 115 116 117 118 119
 120 121 122 123 124
 125 126 127 128 129
 130 131 132 133 134
 135 136 137 138 139
 140 141 142 143 144
 145 146 147 148 149
 150 151 152 153 154
 155 156 157 158 159
 160 161 162 163 164
 165 166 167 168 169
 170 171 172 173 174
 175 176 177 178 179
 180 181 182 183 184
 185 186 187 188 189
 190 191 192 193 194
 195 196 197 198 199
 200 201 202 203 204
 205 206 207 208 209
 210 211 212 213 214
 215 216 217 218 219
 220 221 222 223 224
 225 226 227 228 229
 230 231 232 233 234
 235 236 237 238 239
 240 241 242 243 244
 245 246 247 248 249
 250 251 252 253 254
 255 256 257 258 259
 260 261 262 263 264
 265 266 267 268 269
 270 271 272 273 274
 275 276 277 278 279
 280 281 282 283 284
 285 286 287 288 289
 290 291 292 293 294
 295 296 297 298 299
 300 301 302 303 304
 305 306 307 308 309
 310 311 312 313 314
 315 316 317 318 319
 320 321 322 323 324
 325 326 327 328 329
 330 331 332 333 334
 335 336 337 338 339
 340 341 342 343 344
 345 346 347 348 349
 350 351 352 353 354
 355 356 357 358 359
 360 361 362 363 364
 365 366 367 368 369
 370 371 372 373 374
 375 376 377 378 379
 380 381 382 383 384
 385 386 387 388 389
 390 391 392 393 394
 395 396 397 398 399
 400 401 402 403 404
 405 406 407 408 409
 410 411 412 413 414
 415 416 417 418 419
 420 421 422 423 424
 425 426 427 428 429
 430 431 432 433 434
 435 436 437 438 439
 440
POINT_DATA 441
FIELD FieldData 4
ReceiverID 1 441 int
 0
 1
 2
 3
 4
 5
 6
 7
 8
 9
 10
 11
 12
 13
 14
 15
 16
 17
 18
 19
 20
 21
 22
 23
 24
 25
 26
 27
 28
 29
 30
 31
 32
 33
 34
 35
 36
 37
 38
 39
 40
 41
 42
 43
 44
 45
 46
 47
 48
 49
 50
 51
 52
 53
 54
 55
 56
 57
 58
 59
 60
 61
 62
 63
 64
 65
 66
 67
 68
 69
 70
 71
 72
 73
 74
 75
 76
 77
 78
 79
 80
 81
 82
 83
 84
 85
 86
 87
 88
 89
 90
 91
 92
 93
 94
 95
 96
 97
 98
 99
 100
 101
 102
 103
 104
 105
 106
 107
 108
 109
 110
 111
 112
 113
 114
 115
 116
 117
 118
 119
 120
 121
 122
 123
 124
 125
 126
 127
 128
 129
 130
 131
 132
 133
 134
 135
 136
 137
 138
 139
 140
 141
 142
 143
 144
 145
 146
 147
 148
 149
 150
 151
 152
 153
 154
 155
 156
 157
 158
 159
 160
 161
 162
 163
 164
 165
 166
 167
 168
 169
 170
 171
 172
 173
 174
 175
 176
 177
 178
 179
 180
 181
 182
 183
 184
 185
 186
 187
 188
 189
 190
 191
 192
 193
 194
 195
 196
 197
 198
 199
 200
 201
 202
 203
 204
 205
 206
 207
 208
 209
 210
 211
 212
 213
 214
 215
 216
 217
 218
 219
 220
 221
 222
 223
 224
 225
 226
 227
 228
 229
 230
 231
 232
 233
 234
 235
 236
 237
 238
 239
 240
 241
 242
 243
 244
 245
 246
 247
 248
 249
 250
 251
 252
 253
 254
 255
 256
 257
 258
 259
 260
 261
 262
 263
 264
 265
 266
 267
 268
 269
 270
 271
 272
 273
 274
 275
 276
 277
 278
 279
 280
 281
 282
 283
 284
 285
 286
 287
 288
 289
 290
 291
 292
 293
 294
 295
 296
 297
 298
 299
 300
 301
 302
 303
 304
 305
 306
 307
 308
 309
 310
 311
 312
 313
 314
 315
 316
 317
 318
 319
 320
 321
 322
 323
 324
 325
 326
 327
 328
 329
 330
 331
 332
 333
 334
 335
 336
 337
 338
 339
 340
 341
 342
 343
 344
 345
 346
 347
 348
 349
 350
 351
 352
 353
 354
 355
 356
 357
 358
 359
 360
 361
 362
 363
 364
 365
 366
 367
 368
 369
 370
 371
 372
 373
 374
 375
 376
 377
 378
 379
 380
 381
 382
 383
 384
 385
 386
 387
 388
 389
 390
 391
 392
 393
 394
 395
 396
 397
 398
 399
 400
 401
 402
 403
 404
 405
 406
 407
 408
 409
 410
 411
 412
 413
 414
 415
 416
 417
 418
 419
 420
 421
 422
 423
 424
 425
 426
 427
 428
 429
 430
 431
 432
 433
 434
 435
 436
 437
 438
 439
 440
Eabs 1 441 double
 0.590299
 0.569495
 0.595748
 0.675709
 0.630989
 0.747374
 0.712506
 0.689652
 0.863618
 0.870603
 0.846651
 0.870603
 0.863618
 0.689652
 0.712506
 0.747374
 0.630989
 0.675709
 0.595748
 0.59466
 0.125104
 0.535188
 0.718312
 0.634574
 0.66915
 0.704179
 0.803301
 0.725924
 0.866879
 0.937496
 0.750052
 0.702313
 0.750052
 0.937496
 0.866879
 0.725924
 0.803301
 0.737438
 0.639025
 0.704826
 0.586934
 0.134805
 0.67959
 0.495002
 0.729299
 0.716115
 0.759555
 0.803219
 0.845154
 1.05924
 0.725565
 1.05234
 1.14463
 1.05234
 0.725565
 1.05924
 0.693606
 0.920843
 0.846651
 0.64756
 0.679027
 0.634574
 0
 0.550108
 0.789108
 0.876256
 0.827218
 0.821071
 0.877058
 0.932505
 0.983739
 1.02598
 0.786545
 0.877749
 0.786545
 1.2401
 0.760563
 1.05234
 1.07539
 0.937496
 0.769413
 0.64756
 0.66915
 0
 0.768063
 0.709249
 0.686998
 0.72848
 0.826282
 0.960769
 1.0351
 1.10657
 1.16775
 1.20972
 1.22474
 0.9719
 1.43835
 1.29598
 1.09644
 1.03573
 1.00096
 0.937496
 0.759555
 0.704179
 0
 0.608084
 0.696579
 0.699547
 0.679995
 0.956834
 1.30657
 1.1547
 1.25656
 1.3484
 1.41421
 1.43839
 1.41421
 1.3484
 1.56509
 1.1913
 0.786545
 1.03573
 0.877058
 0.803219
 0.738549
 0
 0.761734
 0.889458
 1.05009
 0.872314
 1.05265
 1.20128
 1.42292
 1.43839
 1.58114
 1.69031
 1.73205
 1.69031
 1.58114
 1.43839
 1.22183
 1.1913
 1.0351
 0.932505
 0.845154
 0.770752
 0
 0.846869
 0.772102
 0.725631
 1.21632
 1.00245
 1.03537
 1.37511
 1.77989
 1.87867
 2.0702
 2.14834
 2.0702
 1.87867
 1.65145
 1.43839
 1.25656
 1.29598
 0.760563
 1.05924
 0.798935
 0
 0.600778
 0.72848
 1.13142
 0.874082
 0.979612
 1.13371
 1.38039
 2.21018
 2.49267
 2.58199
 2.73861
 2.58199
 2.23607
 1.87867
 1.58114
 1.3484
 1.16775
 1.2401
 0.912871
 0.821071
 0
 0.627901
 0.986218
 0.872314
 1.30657
 1.44477
 1.69839
 1.38973
 2.25506
 2.871
 3.58276
 3.4641
 3.16228
 2.58199
 2.0702
 1.69031
 1.41421
 1.20972
 1.05409
 0.932505
 0.835269
 0
 0.846651
 0.702313
 1.14463
 0.877749
 0.934314
 1.60711
 1.57808
 2.31324
 2.75749
 3.82131
 0
 3.4641
 2.73861
 2.14834
 1.73205
 1.43839
 1.22474
 1.06399
 0.939336
 0.840168
 0
 0.870603
 0.750052
 1.05234
 0.786545
 0.9719
 1.11109
 2.03806
 2.02158
 2.59932
 3.38282
 3.82131
 3.58276
 2.58199
 2.0702
 1.69031
 1.41421
 1.20972
 1.05409
 0.932505
 0.835269
 0
 0.863618
 0.937496
 0.725565
 1.2401
 1.43835
 1.65717
 1.86847
 1.64425
 2.17433
 2.59932
 2.75749
 2.871
 2.49267
 1.87867
 1.58114
 1.3484
 1.16775
 1.02598
 0.912871
 0.821071
 0
 0.689652
 0.866879
 1.05924
 0.760563
 1.29598
 1.56509
 1.60711
 1.61014
 1.64425
 2.02158
 2.31324
 2.25506
 2.21018
 1.77989
 1.43839
 1.25656
 1.10657
 0.983739
 0.882735
 0.798935
 0
 0.712506
 0.725924
 0.693606
 1.05234
 1.09644
 1.1913
 1.22183
 1.60711
 1.86847
 2.03806
 1.57808
 1.38973
 1.38039
 1.37511
 1.42292
 1.1547
 1.0351
 0.932505
 0.845154
 0.770752
 0
 0.747374
 0.803301
 0.920843
 1.07539
 1.03573
 0.786545
 1.1913
 1.56509
 1.65717
 1.11109
 1.60711
 1.69839
 1.13371
 1.03537
 1.20128
 1.30657
 0.960769
 0.877058
 0.803219
 0.738549
 0
 0.630989
 0.737438
 0.846651
 0.937496
 1.00096
 1.03573
 1.09644
 1.29598
 1.43835
 0.9719
 0.934314
 1.44477
 0.979612
 1.00245
 1.05265
 0.956834
 0.826282
 0.821071
 0.759555
 0.704179
 0
 0.675709
 0.639025
 0.64756
 0.769413
 0.937496
 1.07539
 1.05234
 0.760563
 1.2401
 0.786545
 0.877749
 1.30657
 0.874082
 1.21632
 0.872314
 0.679995
 0.72848
 0.827218
 0.716115
 0.66915
 0
 0.595748
 0.704826
 0.679027
 0.64756
 0.846651
 0.920843
 0.693606
 1.05924
 0.725565
 1.05234
 1.14463
 0.872314
 1.13142
 0.725631
 1.05009
 0.699547
 0.686998
 0.876256
 0.729299
 0.634574
 0
 0.59466
 0.586934
 0.704826
 0.639025
 0.737438
 0.803301
 0.725924
 0.866879
 0.937496
 0.750052
 0.702313
 0.986218
 0.72848
 0.772102
 0.889458
 0.696579
 0.709249
 0.789108
 0.495002
 0.718312
 0
 0.552376
 0.59466
 0.595748
 0.675709
 0.630989
 0.747374
 0.712506
 0.689652
 0.863618
 0.870603
 0.846651
 0.627901
 0.600778
 0.846869
 0.761734
 0.608084
 0.768063
 0.550108
 0.67959
 0.535188
 0.125187
EdB 1 441 double
 115.421
 115.11
 115.501
 116.595
 116
 117.471
 117.056
 116.773
 118.726
 118.796
 118.554
 118.796
 118.726
 116.773
 117.056
 117.471
 116
 116.595
 115.501
 115.485
 101.945
 114.57
 117.126
 116.05
 116.51
 116.954
 118.098
 117.218
 118.759
 119.439
 117.502
 116.931
 117.502
 119.439
 118.759
 117.218
 118.098
 117.355
 116.11
 116.962
 115.372
 102.594
 116.645
 113.892
 117.258
 117.1
 117.611
 118.097
 118.539
 120.5
 117.214
 120.443
 121.173
 120.443
 117.214
 120.5
 116.822
 119.284
 118.554
 116.226
 116.638
 116.05
 -300
 114.809
 117.943
 118.853
 118.352
 118.288
 118.861
 119.393
 119.858
 120.223
 117.914
 118.867
 117.914
 121.869
 117.623
 120.443
 120.631
 119.439
 117.723
 116.226
 116.51
 -300
 117.708
 117.016
 116.739
 117.248
 118.343
 119.652
 120.3
 120.88
 121.347
 121.654
 121.761
 119.752
 123.157
 122.252
 120.8
 120.305
 120.008
 119.439
 117.611
 116.954
 -300
 115.679
 116.859
 116.896
 116.65
 119.617
 122.323
 121.249
 121.984
 122.596
 123.01
 123.158
 123.01
 122.596
 123.891
 121.52
 117.914
 120.305
 118.861
 118.097
 117.368
 -300
 117.636
 118.983
 120.424
 118.813
 120.446
 121.593
 123.064
 123.158
 123.979
 124.559
 124.771
 124.559
 123.979
 123.158
 121.74
 121.52
 120.3
 119.393
 118.539
 117.738
 -300
 118.556
 117.753
 117.214
 121.701
 120.021
 120.302
 122.767
 125.008
 125.477
 126.32
 126.642
 126.32
 125.477
 124.357
 123.158
 121.984
 122.252
 117.623
 120.5
 118.05
 -300
 115.574
 117.248
 121.072
 118.831
 119.821
 121.09
 122.8
 126.889
 127.933
 128.239
 128.751
 128.239
 126.99
 125.477
 123.979
 122.596
 121.347
 121.869
 119.208
 118.288
 -300
 115.958
 119.879
 118.813
 122.323
 123.196
 124.601
 122.859
 127.063
 129.161
 131.084
 130.792
 130
 128.239
 126.32
 124.559
 123.01
 121.654
 120.458
 119.393
 118.437
 -300
 118.554
 116.931
 121.173
 118.867
 119.41
 124.121
 123.963
 127.284
 128.81
 131.644
 -300
 130.792
 128.751
 126.642
 124.771
 123.158
 121.761
 120.539
 119.456
 118.487
 -300
 118.796
 117.502
 120.443
 117.914
 119.752
 120.915
 126.184
 126.114
 128.297
 130.586
 131.644
 131.084
 128.239
 126.32
 124.559
 123.01
 121.654
 120.458
 119.393
 118.437
 -300
 118.726
 119.439
 117.214
 121.869
 123.157
 124.387
 125.43
 124.319
 126.747
 128.297
 128.81
 129.161
 127.933
 125.477
 123.979
 122.596
 121.347
 120.223
 119.208
 118.288
 -300
 116.773
 118.759
 120.5
 117.623
 122.252
 123.891
 124.121
 124.137
 124.319
 126.114
 127.284
 127.063
 126.889
 125.008
 123.158
 121.984
 120.88
 119.858
 118.917
 118.05
 -300
 117.056
 117.218
 116.822
 120.443
 120.8
 121.52
 121.74
 124.121
 125.43
 126.184
 123.963
 122.859
 122.8
 122.767
 123.064
 121.249
 120.3
 119.393
 118.539
 117.738
 -300
 117.471
 118.098
 119.284
 120.631
 120.305
 117.914
 121.52
 123.891
 124.387
 120.915
 124.121
 124.601
 121.09
 120.302
 121.593
 122.323
 119.652
 118.861
 118.097
 117.368
 -300
 116
 117.355
 118.554
 119.439
 120.008
 120.305
 120.8
 122.252
 123.157
 119.752
 119.41
 123.196
 119.821
 120.021
 120.446
 119.617
 118.343
 118.288
 117.611
 116.954
 -300
 116.595
 116.11
 116.226
 117.723
 119.439
 120.631
 120.443
 117.623
 121.869
 117.914
 118.867
 122.323
 118.831
 121.701
 118.813
 116.65
 117.248
 118.352
 117.1
 116.51
 -300
 115.501
 116.962
 116.638
 116.226
 118.554
 119.284
 116.822
 120.5
 117.214
 120.443
 121.173
 118.813
 121.072
 117.214
 120.424
 116.896
 116.739
 118.853
 117.258
 116.05
 -300
 115.485
 115.372
 116.962
 116.11
 117.355
 118.098
 117.218
 118.759
 119.439
 117.502
 116.931
 119.879
 117.248
 117.753
 118.983
 116.859
 117.016
 117.943
 113.892
 117.126
 -300
 114.845
 115.485
 115.501
 116.595
 116
 117.471
 117.056
 116.773
 118.726
 118.796
 118.554
 115.958
 115.574
 118.556
 117.636
 115.679
 117.708
 114.809
 116.645
 114.57
 101.951
Phase 1 441 double
 -0.778563
 0.0253904
 -4.42176
 1.84216
 3.83839
 3.29895
 -3.22759
 -1.45732
 -0.849261
 2.21063
 -0.405874
 5.35222
 -3.99085
 1.68428
 -0.0859963
 0.157355
 0.6968
 -1.29944
 -1.28017
 3.91938
 2.05898
 -1.22282
 0.00703941
 0.816131
 3.08308
 5.42193
 -4.90034
 4.6798
 3.21318
 -0.251616
 -1.70969
 3.42832
 1.4319
 2.88998
 0.071588
 1.5382
 -1.75875
 1.24973
 -4.6657
 -2.37254
 0.762901
 -5.88253
 -2.16684
 1.20079
 5.62005
 -5.24367
 1.93659
 -4.4352
 5.73697
 -0.808119
 -4.31715
 -3.08353
 -2.97264
 0.0580642
 -1.17556
 2.33347
 4.25209
 -0.653571
 -1.94844
 -4.13543
 -1.56023
 -2.32546
 0
 -0.0726094
 2.46563
 -4.91686
 1.53181
 0.444733
 5.76954
 -3.91279
 1.0665
 0.0559242
 3.81878
 1.23644
 0.677188
 -3.61323
 -1.41567
 0.0580642
 2.60098
 2.88998
 2.42569
 -4.13543
 6.22467
 0
 6.13147
 6.59734
 3.25015
 -4.53143
 1.07064
 -1.38924
 -4.98204
 5.73512
 -3.02316
 -2.11132
 -2.80987
 -5.9118
 0.524368
 1.93176
 -2.8032
 -5.49964
 -4.14794
 2.88998
 -1.205
 2.28034
 0
 1.29997
 5.53133
 -5.75117
 5.94697
 -0.25151
 4.06433
 1.06021
 6.05531
 -2.97642
 -4.1363
 -1.0475
 -0.994709
 -6.11801
 -3.08104
 -1.19334
 0.677188
 -5.49964
 2.62795
 -1.29361
 -2.6156
 0
 -0.978031
 0.615127
 5.63255
 -5.14059
 -3.91365
 0.0942455
 6.57332
 -0.000451288
 -1.52479
 2.86848
 -1.27413
 6.01008
 -4.66638
 -3.14204
 1.90412
 -1.19334
 -1.84045
 -0.771195
 2.59537
 -3.28607
 0
 -3.70467
 1.04149
 0.85575
 0.867863
 6.87356
 5.23945
 -0.898781
 2.58775
 -1.67937
 -2.49102
 1.2782
 -5.63261
 1.46222
 0.0883943
 -3.14204
 2.91372
 1.93176
 -1.41567
 2.33347
 -0.862619
 0
 3.84857
 -4.53143
 -5.4577
 1.22622
 -4.0255
 2.49505
 -0.800978
 -1.46659
 -2.84225
 6.0483
 -2.91931
 2.90671
 0.647195
 1.46222
 -4.66638
 -6.11801
 0.118436
 -3.61323
 -2.14132
 3.58633
 0
 -2.29622
 0.385004
 -5.14059
 4.06433
 -1.66161
 -4.42916
 -3.23818
 3.33669
 6.31889
 -0.871858
 -2.20786
 2.3792
 2.90671
 -5.63261
 6.01008
 -0.994709
 -5.25291
 0.85441
 -0.771195
 2.88591
 0
 -5.21697
 2.33068
 -8.0251
 3.12115
 -1.97254
 -4.00634
 1.20506
 6.46798
 0.952071
 -3.98338
 0
 -1.74099
 -5.94976
 0.346504
 -3.48198
 -0.000451288
 -5.7856
 -0.833757
 2.92445
 -0.419002
 0
 5.35222
 1.4319
 0.0580642
 0.677188
 -5.9118
 -0.622088
 5.96237
 -5.32179
 2.72391
 2.45132
 -0.839068
 -0.871858
 6.0483
 -2.49102
 2.86848
 -4.1363
 -2.11132
 3.996
 -3.91279
 -0.25568
 0
 -3.99085
 2.88998
 -1.17556
 -3.61323
 0.524368
 -5.80863
 -4.94524
 1.24326
 0.902169
 2.72391
 -2.19131
 6.31889
 -2.84225
 -1.67937
 -1.52479
 -2.97642
 -3.02316
 0.0559242
 -5.28291
 0.444733
 0
 1.68428
 0.071588
 2.33347
 -1.41567
 1.93176
 -3.08104
 -2.61726
 0.572654
 1.24326
 -5.32179
 3.3264
 3.33669
 -1.46659
 2.58775
 -0.000451288
 6.05531
 5.73512
 1.0665
 -0.368855
 2.27897
 0
 -0.0859963
 1.5382
 4.25209
 0.0580642
 -2.8032
 -1.19334
 1.90412
 -2.61726
 -4.94524
 5.96237
 -1.93547
 -3.23818
 -0.800978
 -0.898781
 6.57332
 1.06021
 -4.98204
 -3.91279
 5.73697
 -0.144476
 0
 0.157355
 -1.75875
 -0.653571
 2.60098
 -5.49964
 0.677188
 -1.19334
 -3.08104
 -5.80863
 -0.622088
 -0.865945
 -4.42916
 2.49505
 5.23945
 0.0942455
 4.06433
 -1.38924
 5.76954
 -4.4352
 -5.7572
 0
 0.6968
 1.24973
 -1.94844
 2.88998
 -4.14794
 -5.49964
 -2.8032
 1.93176
 0.524368
 -5.9118
 -5.11398
 -1.66161
 -4.0255
 6.87356
 -3.91365
 -0.25151
 1.07064
 0.444733
 1.93659
 5.42193
 0
 -1.29944
 -4.6657
 -4.13543
 2.42569
 2.88998
 2.60098
 0.0580642
 -1.41567
 -3.61323
 0.677188
 -0.0205241
 4.06433
 1.22622
 0.867863
 -5.14059
 5.94697
 -4.53143
 1.53181
 -5.24367
 3.08308
 0
 -1.28017
 -2.37254
 -1.56023
 -4.13543
 -1.94844
 -0.653571
 4.25209
 2.33347
 -1.17556
 0.0580642
 -4.88438
 -5.14059
 -5.4577
 0.85575
 5.63255
 -5.75117
 3.25015
 -4.91686
 5.62005
 0.816131
 0
 3.91938
 0.762901
 -2.37254
 -4.6657
 1.24973
 -1.75875
 1.5382
 0.071588
 2.88998
 1.4319
 5.47288
 0.385004
 -4.53143
 1.04149
 0.615127
 5.53133
 6.59734
 2.46563
 1.20079
 0.00703941
 0
 0.19695
 3.91938
 -1.28017
 -1.29944
 0.6968
 0.157355
 -0.0859963
 1.68428
 -3.99085
 5.35222
 -2.07528
 -2.29622
 3.84857
 -3.70467
 -0.978031
 1.29997
 6.13147
 -0.0726094
 -2.16684
 -1.22282
 2.08695
