# vtk DataFile Version 2.0
TX or RX Location Visualization
ASCII
DATASET POLYDATA

POINTS 2 float
 0 -5 3
 0 5 3
VERTICES 1 3
 2
 0
 1
POINT_DATA 2
FIELD FieldData 1
ReceiverID 1 2 int
 0
 1
