# vtk DataFile Version 2.0
Ray Path Visualization
ASCII
DATASET POLYDATA

POINTS 200 float
 0 0 3
 0 1 3
 0 2 3
 0 3 3
 0 4 3
 0 5 3
 0 6 3
 0 7 3
 0 8 3
 0 9 3
 0 10 3
 0 11 3
 0 12 3
 0 13 3
 0 14 3
 0 15 3
 0 16 3
 0 17 3
 0 18 3
 0 19 3
 0 20 3
 0 21 3
 0 22 3
 0 23 3
 0 24 3
 0 25 3
 0 26 3
 0 27 3
 0 28 3
 0 29 3
 0 30 3
 0 31 3
 0 32 3
 0 33 3
 0 34 3
 0 35 3
 0 36 3
 0 37 3
 0 38 3
 0 39 3
 0 40 3
 0 41 3
 0 42 3
 0 43 3
 0 44 3
 0 45 3
 0 46 3
 0 47 3
 0 48 3
 0 49 3
 0 50 3
 0 51 3
 0 52 3
 0 53 3
 0 54 3
 0 55 3
 0 56 3
 0 57 3
 0 58 3
 0 59 3
 0 60 3
 0 61 3
 0 62 3
 0 63 3
 0 64 3
 0 65 3
 0 66 3
 0 67 3
 0 68 3
 0 69 3
 0 70 3
 0 71 3
 0 72 3
 0 73 3
 0 74 3
 0 75 3
 0 76 3
 0 77 3
 0 78 3
 0 79 3
 0 80 3
 0 81 3
 0 82 3
 0 83 3
 0 84 3
 0 85 3
 0 86 3
 0 87 3
 0 88 3
 0 89 3
 0 90 3
 0 91 3
 0 92 3
 0 93 3
 0 94 3
 0 95 3
 0 96 3
 0 97 3
 0 98 3
 0 99 3
 0 100 3
 0 101 3
 0 102 3
 0 103 3
 0 104 3
 0 105 3
 0 106 3
 0 107 3
 0 108 3
 0 109 3
 0 110 3
 0 111 3
 0 112 3
 0 113 3
 0 114 3
 0 115 3
 0 116 3
 0 117 3
 0 118 3
 0 119 3
 0 120 3
 0 121 3
 0 122 3
 0 123 3
 0 124 3
 0 125 3
 0 126 3
 0 127 3
 0 128 3
 0 129 3
 0 130 3
 0 131 3
 0 132 3
 0 133 3
 0 134 3
 0 135 3
 0 136 3
 0 137 3
 0 138 3
 0 139 3
 0 140 3
 0 141 3
 0 142 3
 0 143 3
 0 144 3
 0 145 3
 0 146 3
 0 147 3
 0 148 3
 0 149 3
 0 150 3
 0 151 3
 0 152 3
 0 153 3
 0 154 3
 0 155 3
 0 156 3
 0 157 3
 0 158 3
 0 159 3
 0 160 3
 0 161 3
 0 162 3
 0 163 3
 0 164 3
 0 165 3
 0 166 3
 0 167 3
 0 168 3
 0 169 3
 0 170 3
 0 171 3
 0 172 3
 0 173 3
 0 174 3
 0 175 3
 0 176 3
 0 177 3
 0 178 3
 0 179 3
 0 180 3
 0 181 3
 0 182 3
 0 183 3
 0 184 3
 0 185 3
 0 186 3
 0 187 3
 0 188 3
 0 189 3
 0 190 3
 0 191 3
 0 192 3
 0 193 3
 0 194 3
 0 195 3
 0 196 3
 0 197 3
 0 198 3
 0 199 3
VERTICES 1 201
200
 0 1 2 3 4
 5 6 7 8 9
 10 11 12 13 14
 15 16 17 18 19
 20 21 22 23 24
 25 26 27 28 29
 30 31 32 33 34
 35 36 37 38 39
 40 41 42 43 44
 45 46 47 48 49
 50 51 52 53 54
 55 56 57 58 59
 60 61 62 63 64
 65 66 67 68 69
 70 71 72 73 74
 75 76 77 78 79
 80 81 82 83 84
 85 86 87 88 89
 90 91 92 93 94
 95 96 97 98 99
 100 101 102 103 104
 105 106 107 108 109
 110 111 112 113 114
 115 116 117 118 119
 120 121 122 123 124
 125 126 127 128 129
 130 131 132 133 134
 135 136 137 138 139
 140 141 142 143 144
 145 146 147 148 149
 150 151 152 153 154
 155 156 157 158 159
 160 161 162 163 164
 165 166 167 168 169
 170 171 172 173 174
 175 176 177 178 179
 180 181 182 183 184
 185 186 187 188 189
 190 191 192 193 194
 195 196 197 198 199

POINT_DATA 200
FIELD FieldData 4
ReceiverID 1 200 int
 0
 1
 2
 3
 4
 5
 6
 7
 8
 9
 10
 11
 12
 13
 14
 15
 16
 17
 18
 19
 20
 21
 22
 23
 24
 25
 26
 27
 28
 29
 30
 31
 32
 33
 34
 35
 36
 37
 38
 39
 40
 41
 42
 43
 44
 45
 46
 47
 48
 49
 50
 51
 52
 53
 54
 55
 56
 57
 58
 59
 60
 61
 62
 63
 64
 65
 66
 67
 68
 69
 70
 71
 72
 73
 74
 75
 76
 77
 78
 79
 80
 81
 82
 83
 84
 85
 86
 87
 88
 89
 90
 91
 92
 93
 94
 95
 96
 97
 98
 99
 100
 101
 102
 103
 104
 105
 106
 107
 108
 109
 110
 111
 112
 113
 114
 115
 116
 117
 118
 119
 120
 121
 122
 123
 124
 125
 126
 127
 128
 129
 130
 131
 132
 133
 134
 135
 136
 137
 138
 139
 140
 141
 142
 143
 144
 145
 146
 147
 148
 149
 150
 151
 152
 153
 154
 155
 156
 157
 158
 159
 160
 161
 162
 163
 164
 165
 166
 167
 168
 169
 170
 171
 172
 173
 174
 175
 176
 177
 178
 179
 180
 181
 182
 183
 184
 185
 186
 187
 188
 189
 190
 191
 192
 193
 194
 195
 196
 197
 198
 199
Eabs 1 200 double
 5.80901e-16
 2.0196
 2.24358
 2.17243
 1.9557
 1.75283
 1.37211
 1.20088
 1.47939
 0.839836
 1.23651
 1.28337
 1.21448
 1.02053
 0.513237
 0.713408
 0.975444
 0.306824
 0.923708
 0.3025
 0.764556
 0.627186
 0.267579
 0.72827
 0.593758
 0.148946
 0.475215
 0.6594
 0.521282
 0.202486
 0.217245
 0.463546
 0.563009
 0.510847
 0.350108
 0.144965
 0.118505
 0.284751
 0.404836
 0.461052
 0.456353
 0.401699
 0.311698
 0.202001
 0.0905541
 0.0599199
 0.148147
 0.230891
 0.294891
 0.338089
 0.360855
 0.364857
 0.352528
 0.326692
 0.290302
 0.246245
 0.197232
 0.145767
 0.0943208
 0.0468497
 0.0283795
 0.0625653
 0.102168
 0.138562
 0.17047
 0.197527
 0.219668
 0.236991
 0.249703
 0.258082
 0.262455
 0.263177
 0.26062
 0.255158
 0.247159
 0.236981
 0.224963
 0.211424
 0.196662
 0.180949
 0.164535
 0.147646
 0.130484
 0.113233
 0.0960564
 0.0791061
 0.062532
 0.0465099
 0.0313438
 0.0180062
 0.0117489
 0.0192166
 0.031007
 0.0431033
 0.0548034
 0.0659181
 0.0763792
 0.0861604
 0.0952541
 0.103664
 0.111399
 0.118474
 0.124906
 0.130716
 0.135925
 0.140556
 0.144633
 0.148181
 0.151224
 0.153787
 0.155895
 0.157573
 0.158844
 0.159733
 0.160261
 0.160452
 0.160327
 0.159908
 0.159214
 0.158264
 0.157078
 0.155673
 0.154067
 0.152274
 0.150312
 0.148193
 0.145934
 0.143546
 0.141041
 0.138433
 0.135731
 0.132947
 0.13009
 0.127169
 0.0707815
 0.0702574
 0.069741
 0.0692322
 0.0687307
 0.0682365
 0.0677493
 0.067269
 0.0667954
 0.0663285
 0.0658681
 0.065414
 0.0649661
 0.0645243
 0.0640885
 0.0636586
 0.0632343
 0.0628157
 0.0624026
 0.0619949
 0.0615924
 0.0611952
 0.060803
 0.0604159
 0.0600336
 0.0596562
 0.0592834
 0.0589153
 0.0585518
 0.0581927
 0.0578379
 0.0574875
 0.0571413
 0.0567992
 0.0564612
 0.0561272
 0.0557972
 0.055471
 0.0551485
 0.0548299
 0.0545148
 0.0542034
 0.0538955
 0.0535911
 0.0532901
 0.0529925
 0.0526981
 0.052407
 0.0521192
 0.0518344
 0.0515528
 0.0512742
 0.0509986
 0.0507259
 0.0504562
 0.0501893
 0.0499252
 0.0496638
 0.0494052
 0.0491493
 0.048896
 0.0486453
 0.0483972
 0.0481515
 0.0479084
 0.0476677
EdB 1 200 double
 -184.718
 126.105
 127.019
 126.739
 125.826
 124.875
 122.748
 121.59
 123.402
 118.484
 121.844
 122.167
 121.688
 120.177
 114.206
 117.067
 119.784
 109.738
 119.311
 109.615
 117.668
 115.948
 108.549
 117.246
 115.472
 103.461
 113.538
 116.383
 114.341
 106.128
 106.739
 113.322
 115.01
 114.166
 110.884
 103.225
 101.475
 109.089
 112.146
 113.275
 113.186
 112.078
 109.875
 106.107
 99.1382
 95.5514
 103.414
 107.268
 109.393
 110.581
 111.147
 111.242
 110.944
 110.283
 109.257
 107.827
 105.9
 103.273
 99.4922
 93.4141
 89.0601
 95.9267
 100.186
 102.833
 104.633
 105.913
 106.835
 107.495
 107.948
 108.235
 108.381
 108.405
 108.32
 108.136
 107.86
 107.494
 107.042
 106.503
 105.874
 105.151
 104.325
 103.384
 102.311
 101.079
 99.6505
 97.9642
 95.922
 93.3509
 89.923
 85.1084
 81.4
 85.6735
 89.8292
 92.6902
 94.7761
 96.3801
 97.6595
 98.7061
 99.5777
 100.313
 100.938
 101.472
 101.932
 102.327
 102.666
 102.957
 103.205
 103.416
 103.592
 103.738
 103.857
 103.95
 104.019
 104.068
 104.097
 104.107
 104.1
 104.077
 104.04
 103.988
 103.922
 103.844
 103.754
 103.653
 103.54
 103.417
 103.283
 103.14
 102.987
 102.825
 102.654
 102.474
 102.285
 102.088
 96.9984
 96.9338
 96.8698
 96.8062
 96.743
 96.6803
 96.6181
 96.5563
 96.4949
 96.434
 96.3735
 96.3134
 96.2537
 96.1945
 96.1356
 96.0771
 96.0191
 95.9614
 95.904
 95.8471
 95.7905
 95.7343
 95.6785
 95.623
 95.5679
 95.5131
 95.4587
 95.4046
 95.3508
 95.2974
 95.2443
 95.1915
 95.139
 95.0868
 95.035
 94.9835
 94.9322
 94.8813
 94.8307
 94.7803
 94.7303
 94.6805
 94.6311
 94.5819
 94.5329
 94.4843
 94.4359
 94.3878
 94.3399
 94.2924
 94.245
 94.198
 94.1512
 94.1046
 94.0583
 94.0122
 93.9664
 93.9208
 93.8755
 93.8303
 93.7855
 93.7408
 93.6964
 93.6522
 93.6082
 93.5645
Phase 1 200 double
 -3.24599
 6.12878
 -4.31592
 2.43479
 -1.41897
 6.49318
 -4.50945
 0.197586
 0.644953
 7.62606
 0.134137
 -1.76431
 -0.410724
 -1.35861
 -2.85883
 -3.41477
 3.17001
 -0.236804
 5.87047
 0.976477
 4.64219
 -0.396854
 1.95389
 -5.65472
 0.305036
 3.60412
 5.10635
 -3.09244
 1.26637
 4.2831
 4.19634
 6.85931
 -2.49855
 0.813676
 3.35315
 5.34702
 4.43158
 6.14948
 -4.50928
 -2.35976
 -0.0665223
 1.96122
 3.61626
 5.01777
 6.21981
 4.64617
 5.61989
 6.7365
 -4.67292
 -3.44996
 -2.1395
 -0.770225
 0.561155
 1.7633
 2.8148
 3.73938
 4.56767
 5.32284
 6.01661
 0.340634
 4.61797
 4.93909
 5.51249
 6.09639
 6.68201
 7.27161
 -4.69671
 -4.08536
 -3.45681
 -2.80968
 -2.14714
 -1.4781
 -0.81637
 -0.17711
 0.427493
 0.990731
 1.51121
 1.99116
 2.43455
 2.84586
 3.22934
 3.58871
 3.92713
 4.24716
 4.55082
 4.83957
 5.11411
 5.37368
 5.61296
 5.79824
 3.93713
 3.36989
 3.54972
 3.75656
 3.96712
 4.17679
 4.38432
 4.58944
 4.79222
 4.99291
 5.19181
 5.38927
 5.58563
 5.78124
 5.97645
 6.17157
 6.3669
 6.56268
 6.75911
 6.95633
 -5.41199
 -5.21313
 -5.0136
 -4.81365
 -4.61364
 -4.41402
 -4.21536
 -4.01828
 -3.82349
 -3.63168
 -3.44355
 -3.25976
 -3.0809
 -2.90747
 -2.73987
 -2.57841
 -2.42328
 -2.27459
 -2.13236
 -1.99653
 -1.867
 -1.7436
 -1.62614
 -1.51442
 1.95645
 1.89067
 1.8247
 1.75855
 1.69223
 1.62573
 1.55906
 1.49223
 1.42524
 1.35809
 1.29078
 1.22333
 1.15572
 1.08797
 1.02008
 0.952047
 0.883877
 0.815574
 0.747139
 0.678575
 0.609884
 0.54107
 0.472135
 0.40308
 0.333908
 0.264621
 0.195222
 0.125712
 0.0560939
 -0.0136308
 -0.08346
 -0.153392
 -0.223424
 -0.293556
 -0.363785
 -0.434109
 -0.504527
 -0.575037
 -0.645637
 -0.716327
 -0.787104
 -0.857966
 -0.928914
 -0.999944
 -1.07106
 -1.14225
 -1.21352
 -1.28487
 -1.35629
 -1.42779
 -1.49937
 -1.57101
 -1.64273
 -1.71452
 -1.78638
 -1.8583
 -1.9303
 -2.00236
 -2.07448
 -2.14667
 -2.21892
 -2.29123
 -2.3636
 -2.43604
 -2.50853
 -2.58108
