# vtk DataFile Version 2.0
TX or RX Location Visualization
ASCII
DATASET POLYDATA

POINTS 108 float
 0.5 0.5 1.5
 0.5 1.5 1.5
 0.5 2.5 1.5
 0.5 3.5 1.5
 0.5 4.5 1.5
 0.5 5.5 1.5
 0.5 6.5 1.5
 0.5 7.5 1.5
 0.5 8.5 1.5
 1.5 0.5 1.5
 1.5 1.5 1.5
 1.5 2.5 1.5
 1.5 3.5 1.5
 1.5 4.5 1.5
 1.5 5.5 1.5
 1.5 6.5 1.5
 1.5 7.5 1.5
 1.5 8.5 1.5
 2.5 0.5 1.5
 2.5 1.5 1.5
 2.5 2.5 1.5
 2.5 3.5 1.5
 2.5 4.5 1.5
 2.5 5.5 1.5
 2.5 6.5 1.5
 2.5 7.5 1.5
 2.5 8.5 1.5
 3.5 0.5 1.5
 3.5 1.5 1.5
 3.5 2.5 1.5
 3.5 3.5 1.5
 3.5 4.5 1.5
 3.5 5.5 1.5
 3.5 6.5 1.5
 3.5 7.5 1.5
 3.5 8.5 1.5
 4.5 0.5 1.5
 4.5 1.5 1.5
 4.5 2.5 1.5
 4.5 3.5 1.5
 4.5 4.5 1.5
 4.5 5.5 1.5
 4.5 6.5 1.5
 4.5 7.5 1.5
 4.5 8.5 1.5
 5.5 0.5 1.5
 5.5 1.5 1.5
 5.5 2.5 1.5
 5.5 3.5 1.5
 5.5 4.5 1.5
 5.5 5.5 1.5
 5.5 6.5 1.5
 5.5 7.5 1.5
 5.5 8.5 1.5
 6.5 0.5 1.5
 6.5 1.5 1.5
 6.5 2.5 1.5
 6.5 3.5 1.5
 6.5 4.5 1.5
 6.5 5.5 1.5
 6.5 6.5 1.5
 6.5 7.5 1.5
 6.5 8.5 1.5
 7.5 0.5 1.5
 7.5 1.5 1.5
 7.5 2.5 1.5
 7.5 3.5 1.5
 7.5 4.5 1.5
 7.5 5.5 1.5
 7.5 6.5 1.5
 7.5 7.5 1.5
 7.5 8.5 1.5
 8.5 0.5 1.5
 8.5 1.5 1.5
 8.5 2.5 1.5
 8.5 3.5 1.5
 8.5 4.5 1.5
 8.5 5.5 1.5
 8.5 6.5 1.5
 8.5 7.5 1.5
 8.5 8.5 1.5
 9.5 0.5 1.5
 9.5 1.5 1.5
 9.5 2.5 1.5
 9.5 3.5 1.5
 9.5 4.5 1.5
 9.5 5.5 1.5
 9.5 6.5 1.5
 9.5 7.5 1.5
 9.5 8.5 1.5
 10.5 0.5 1.5
 10.5 1.5 1.5
 10.5 2.5 1.5
 10.5 3.5 1.5
 10.5 4.5 1.5
 10.5 5.5 1.5
 10.5 6.5 1.5
 10.5 7.5 1.5
 10.5 8.5 1.5
 11.5 0.5 1.5
 11.5 1.5 1.5
 11.5 2.5 1.5
 11.5 3.5 1.5
 11.5 4.5 1.5
 11.5 5.5 1.5
 11.5 6.5 1.5
 11.5 7.5 1.5
 11.5 8.5 1.5
VERTICES 1 109
 108
 0
 1
 2
 3
 4
 5
 6
 7
 8
 9
 10
 11
 12
 13
 14
 15
 16
 17
 18
 19
 20
 21
 22
 23
 24
 25
 26
 27
 28
 29
 30
 31
 32
 33
 34
 35
 36
 37
 38
 39
 40
 41
 42
 43
 44
 45
 46
 47
 48
 49
 50
 51
 52
 53
 54
 55
 56
 57
 58
 59
 60
 61
 62
 63
 64
 65
 66
 67
 68
 69
 70
 71
 72
 73
 74
 75
 76
 77
 78
 79
 80
 81
 82
 83
 84
 85
 86
 87
 88
 89
 90
 91
 92
 93
 94
 95
 96
 97
 98
 99
 100
 101
 102
 103
 104
 105
 106
 107
POINT_DATA 108
FIELD FieldData 1
ReceiverID 1 108 int
 0
 1
 2
 3
 4
 5
 6
 7
 8
 9
 10
 11
 12
 13
 14
 15
 16
 17
 18
 19
 20
 21
 22
 23
 24
 25
 26
 27
 28
 29
 30
 31
 32
 33
 34
 35
 36
 37
 38
 39
 40
 41
 42
 43
 44
 45
 46
 47
 48
 49
 50
 51
 52
 53
 54
 55
 56
 57
 58
 59
 60
 61
 62
 63
 64
 65
 66
 67
 68
 69
 70
 71
 72
 73
 74
 75
 76
 77
 78
 79
 80
 81
 82
 83
 84
 85
 86
 87
 88
 89
 90
 91
 92
 93
 94
 95
 96
 97
 98
 99
 100
 101
 102
 103
 104
 105
 106
 107
