# vtk DataFile Version 2.0
Ray Path Visualization
ASCII
DATASET POLYDATA

POINTS 160 float
 0 40 3
 0 41 3
 0 42 3
 0 43 3
 0 44 3
 0 45 3
 0 46 3
 0 47 3
 0 48 3
 0 49 3
 0 50 3
 0 51 3
 0 52 3
 0 53 3
 0 54 3
 0 55 3
 0 56 3
 0 57 3
 0 58 3
 0 59 3
 0 60 3
 0 61 3
 0 62 3
 0 63 3
 0 64 3
 0 65 3
 0 66 3
 0 67 3
 0 68 3
 0 69 3
 0 70 3
 0 71 3
 0 72 3
 0 73 3
 0 74 3
 0 75 3
 0 76 3
 0 77 3
 0 78 3
 0 79 3
 0 80 3
 0 81 3
 0 82 3
 0 83 3
 0 84 3
 0 85 3
 0 86 3
 0 87 3
 0 88 3
 0 89 3
 0 90 3
 0 91 3
 0 92 3
 0 93 3
 0 94 3
 0 95 3
 0 96 3
 0 97 3
 0 98 3
 0 99 3
 0 100 3
 0 101 3
 0 102 3
 0 103 3
 0 104 3
 0 105 3
 0 106 3
 0 107 3
 0 108 3
 0 109 3
 0 110 3
 0 111 3
 0 112 3
 0 113 3
 0 114 3
 0 115 3
 0 116 3
 0 117 3
 0 118 3
 0 119 3
 0 120 3
 0 121 3
 0 122 3
 0 123 3
 0 124 3
 0 125 3
 0 126 3
 0 127 3
 0 128 3
 0 129 3
 0 130 3
 0 131 3
 0 132 3
 0 133 3
 0 134 3
 0 135 3
 0 136 3
 0 137 3
 0 138 3
 0 139 3
 0 140 3
 0 141 3
 0 142 3
 0 143 3
 0 144 3
 0 145 3
 0 146 3
 0 147 3
 0 148 3
 0 149 3
 0 150 3
 0 151 3
 0 152 3
 0 153 3
 0 154 3
 0 155 3
 0 156 3
 0 157 3
 0 158 3
 0 159 3
 0 160 3
 0 161 3
 0 162 3
 0 163 3
 0 164 3
 0 165 3
 0 166 3
 0 167 3
 0 168 3
 0 169 3
 0 170 3
 0 171 3
 0 172 3
 0 173 3
 0 174 3
 0 175 3
 0 176 3
 0 177 3
 0 178 3
 0 179 3
 0 180 3
 0 181 3
 0 182 3
 0 183 3
 0 184 3
 0 185 3
 0 186 3
 0 187 3
 0 188 3
 0 189 3
 0 190 3
 0 191 3
 0 192 3
 0 193 3
 0 194 3
 0 195 3
 0 196 3
 0 197 3
 0 198 3
 0 199 3
VERTICES 1 161
160
 0 1 2 3 4
 5 6 7 8 9
 10 11 12 13 14
 15 16 17 18 19
 20 21 22 23 24
 25 26 27 28 29
 30 31 32 33 34
 35 36 37 38 39
 40 41 42 43 44
 45 46 47 48 49
 50 51 52 53 54
 55 56 57 58 59
 60 61 62 63 64
 65 66 67 68 69
 70 71 72 73 74
 75 76 77 78 79
 80 81 82 83 84
 85 86 87 88 89
 90 91 92 93 94
 95 96 97 98 99
 100 101 102 103 104
 105 106 107 108 109
 110 111 112 113 114
 115 116 117 118 119
 120 121 122 123 124
 125 126 127 128 129
 130 131 132 133 134
 135 136 137 138 139
 140 141 142 143 144
 145 146 147 148 149
 150 151 152 153 154
 155 156 157 158 159

POINT_DATA 160
FIELD FieldData 4
ReceiverID 1 160 int
 0
 1
 2
 3
 4
 5
 6
 7
 8
 9
 10
 11
 12
 13
 14
 15
 16
 17
 18
 19
 20
 21
 22
 23
 24
 25
 26
 27
 28
 29
 30
 31
 32
 33
 34
 35
 36
 37
 38
 39
 40
 41
 42
 43
 44
 45
 46
 47
 48
 49
 50
 51
 52
 53
 54
 55
 56
 57
 58
 59
 60
 61
 62
 63
 64
 65
 66
 67
 68
 69
 70
 71
 72
 73
 74
 75
 76
 77
 78
 79
 80
 81
 82
 83
 84
 85
 86
 87
 88
 89
 90
 91
 92
 93
 94
 95
 96
 97
 98
 99
 100
 101
 102
 103
 104
 105
 106
 107
 108
 109
 110
 111
 112
 113
 114
 115
 116
 117
 118
 119
 120
 121
 122
 123
 124
 125
 126
 127
 128
 129
 130
 131
 132
 133
 134
 135
 136
 137
 138
 139
 140
 141
 142
 143
 144
 145
 146
 147
 148
 149
 150
 151
 152
 153
 154
 155
 156
 157
 158
 159
Eabs 1 160 double
 0.257166
 0.243501
 0.226224
 0.210062
 0.198706
 0.193617
 0.193809
 0.196874
 0.20034
 0.202445
 0.202288
 0.199667
 0.194853
 0.188397
 0.180979
 0.173297
 0.165981
 0.159529
 0.154266
 0.150327
 0.14767
 0.146115
 0.1454
 0.145236
 0.145352
 0.145514
 0.145547
 0.145326
 0.144776
 0.143864
 0.142584
 0.140959
 0.139024
 0.136827
 0.134421
 0.13186
 0.129201
 0.126494
 0.123787
 0.121122
 0.118535
 0.116056
 0.113709
 0.11151
 0.10947
 0.107594
 0.105883
 0.104334
 0.102938
 0.101686
 0.100566
 0.0995654
 0.0986695
 0.0978646
 0.0971368
 0.096473
 0.0958609
 0.0952893
 0.0947478
 0.0942275
 0.0937207
 0.0932205
 0.0927213
 0.0922186
 0.0917086
 0.0911884
 0.0906558
 0.0901094
 0.0895481
 0.0889716
 0.0883796
 0.0877725
 0.0871509
 0.0865154
 0.0858671
 0.0852069
 0.0845362
 0.0838561
 0.0831679
 0.082473
 0.0817726
 0.081068
 0.0803605
 0.0796514
 0.0789417
 0.0782327
 0.0775253
 0.0768206
 0.0761196
 0.075423
 0.0747317
 0.0740464
 0.0733678
 0.0726965
 0.0707815
 0.0702574
 0.069741
 0.0692322
 0.0687307
 0.0682365
 0.0677493
 0.067269
 0.0667954
 0.0663285
 0.0658681
 0.065414
 0.0649661
 0.0645243
 0.0640885
 0.0636586
 0.0632343
 0.0628157
 0.0624026
 0.0619949
 0.0615924
 0.0611952
 0.060803
 0.0604159
 0.0600336
 0.0596562
 0.0592834
 0.0589153
 0.0585518
 0.0581927
 0.0578379
 0.0574875
 0.0571413
 0.0567992
 0.0564612
 0.0561272
 0.0557972
 0.055471
 0.0551485
 0.0548299
 0.0545148
 0.0542034
 0.0538955
 0.0535911
 0.0532901
 0.0529925
 0.0526981
 0.052407
 0.0521192
 0.0518344
 0.0515528
 0.0512742
 0.0509986
 0.0507259
 0.0504562
 0.0501893
 0.0499252
 0.0496638
 0.0494052
 0.0491493
 0.048896
 0.0486453
 0.0483972
 0.0481515
 0.0479084
 0.0476677
EdB 1 160 double
 108.204
 107.73
 107.091
 106.447
 105.964
 105.739
 105.747
 105.884
 106.035
 106.126
 106.119
 106.006
 105.794
 105.501
 105.153
 104.776
 104.401
 104.057
 103.765
 103.541
 103.386
 103.294
 103.251
 103.242
 103.248
 103.258
 103.26
 103.247
 103.214
 103.159
 103.081
 102.982
 102.862
 102.723
 102.569
 102.402
 102.225
 102.041
 101.853
 101.664
 101.477
 101.293
 101.116
 100.946
 100.786
 100.636
 100.497
 100.368
 100.252
 100.145
 100.049
 99.9622
 99.8837
 99.8125
 99.7477
 99.6881
 99.6328
 99.5809
 99.5314
 99.4836
 99.4367
 99.3902
 99.3436
 99.2964
 99.2482
 99.1988
 99.1479
 99.0954
 99.0411
 98.985
 98.927
 98.8672
 98.8054
 98.7419
 98.6765
 98.6095
 98.5409
 98.4707
 98.3991
 98.3262
 98.2522
 98.177
 98.1009
 98.0239
 97.9461
 97.8678
 97.7889
 97.7096
 97.6299
 97.5501
 97.4701
 97.3901
 97.3101
 97.2303
 96.9984
 96.9338
 96.8698
 96.8062
 96.743
 96.6803
 96.6181
 96.5563
 96.4949
 96.434
 96.3735
 96.3134
 96.2537
 96.1945
 96.1356
 96.0771
 96.0191
 95.9614
 95.904
 95.8471
 95.7905
 95.7343
 95.6785
 95.623
 95.5679
 95.5131
 95.4587
 95.4046
 95.3508
 95.2974
 95.2443
 95.1915
 95.139
 95.0868
 95.035
 94.9835
 94.9322
 94.8813
 94.8307
 94.7803
 94.7303
 94.6805
 94.6311
 94.5819
 94.5329
 94.4843
 94.4359
 94.3878
 94.3399
 94.2924
 94.245
 94.198
 94.1512
 94.1046
 94.0583
 94.0122
 93.9664
 93.9208
 93.8755
 93.8303
 93.7855
 93.7408
 93.6964
 93.6522
 93.6082
 93.5645
Phase 1 160 double
 4.99245
 5.60134
 0.221904
 1.10137
 1.92352
 2.69541
 3.43116
 4.13556
 4.79656
 5.37592
 5.76705
 5.74202
 5.63251
 5.89599
 6.31696
 0.493661
 0.953251
 1.39862
 1.82526
 2.23273
 2.62223
 2.99523
 3.35255
 3.694
 4.0181
 4.32201
 4.60126
 4.84934
 5.05736
 5.21446
 5.31187
 5.35352
 5.36679
 5.39151
 5.4522
 5.55072
 5.67802
 5.82398
 5.98064
 6.14243
 0.0224295
 0.184517
 0.343898
 0.499537
 0.650796
 0.797305
 0.938873
 1.07543
 1.20698
 1.33358
 1.45528
 1.57217
 1.6843
 1.79174
 1.89452
 1.99264
 2.08611
 2.1749
 2.25895
 2.33821
 2.41259
 2.48202
 2.54638
 2.60558
 2.65952
 2.70811
 2.75126
 2.78893
 2.8211
 2.8478
 2.86913
 2.88524
 2.89637
 2.90286
 2.9051
 2.9036
 2.89888
 2.89153
 2.88215
 2.87132
 2.85956
 2.84735
 2.83508
 2.82306
 2.81152
 2.8006
 2.79039
 2.7809
 2.77214
 2.76404
 2.75652
 2.7495
 2.74288
 2.73657
 1.95645
 1.89067
 1.8247
 1.75855
 1.69223
 1.62573
 1.55906
 1.49223
 1.42524
 1.35809
 1.29078
 1.22333
 1.15572
 1.08797
 1.02008
 0.952047
 0.883877
 0.815574
 0.747139
 0.678575
 0.609884
 0.54107
 0.472135
 0.40308
 0.333908
 0.264621
 0.195222
 0.125712
 0.0560939
 -0.0136308
 -0.08346
 -0.153392
 -0.223424
 -0.293556
 -0.363785
 -0.434109
 -0.504527
 -0.575037
 -0.645637
 -0.716327
 -0.787104
 -0.857966
 -0.928914
 -0.999944
 -1.07106
 -1.14225
 -1.21352
 -1.28487
 -1.35629
 -1.42779
 -1.49937
 -1.57101
 -1.64273
 -1.71452
 -1.78638
 -1.8583
 -1.9303
 -2.00236
 -2.07448
 -2.14667
 -2.21892
 -2.29123
 -2.3636
 -2.43604
 -2.50853
 -2.58108
