# vtk DataFile Version 2.0
Ray Path Visualization
ASCII
DATASET POLYDATA

POINTS 20 float
 0 -10 3
 0 -9 3
 0 -8 3
 0 -7 3
 0 -6 3
 0 -5 3
 0 -4 3
 0 -3 3
 0 -2 3
 0 -1 3
 0 0 3
 0 1 3
 0 2 3
 0 3 3
 0 4 3
 0 5 3
 0 6 3
 0 7 3
 0 8 3
 0 9 3
VERTICES 1 21
20
 0 1 2 3 4
 5 6 7 8 9
 10 11 12 13 14
 15 16 17 18 19

POINT_DATA 20
FIELD FieldData 4
ReceiverID 1 20 int
 0
 1
 2
 3
 4
 5
 6
 7
 8
 9
 10
 11
 12
 13
 14
 15
 16
 17
 18
 19
Eabs 1 20 double
 1.51911
 0.704158
 1.14209
 0.877262
 1.22474
 1.604
 1.73409
 2.14962
 2.75929
 0
 0
 0
 2.3454
 2.14962
 1.73409
 1.37511
 1.22474
 1.26949
 0.766437
 1.03537
EdB 1 20 double
 123.632
 116.953
 121.154
 118.863
 121.761
 124.104
 124.781
 126.647
 128.816
 -300
 -300
 -300
 127.404
 126.647
 124.781
 122.767
 121.761
 122.073
 117.69
 120.302
Phase 1 20 double
 -1.205
 2.34818
 -8.01183
 3.10831
 -2.64401
 -3.99491
 0.253958
 3.72991
 0.977381
 0
 0
 0
 -2.47478
 0.588318
 -2.88763
 -0.75484
 -5.7856
 -1.24749
 1.88789
 -0.199751
