# vtk DataFile Version 2.0
TX or RX Location Visualization
ASCII
DATASET POLYDATA

POINTS 40 float
 -18 -40 1
 -18 -39 1
 -18 -38 1
 -18 -37 1
 -18 -36 1
 -18 -35 1
 -18 -34 1
 -18 -33 1
 -18 -32 1
 -18 -31 1
 -18 -30 1
 -18 -29 1
 -18 -28 1
 -18 -27 1
 -18 -26 1
 -18 -25 1
 -18 -24 1
 -18 -23 1
 -18 -22 1
 -18 -21 1
 -18 -20 1
 -18 -19 1
 -18 -18 1
 -18 -17 1
 -18 -16 1
 -18 -15 1
 -18 -14 1
 -18 -13 1
 -18 -12 1
 -18 -11 1
 -18 -10 1
 -18 -9 1
 -18 -8 1
 -18 -7 1
 -18 -6 1
 -18 -5 1
 -18 -4 1
 -18 -3 1
 -18 -2 1
 -18 -1 1
VERTICES 1 41
 40
 0
 1
 2
 3
 4
 5
 6
 7
 8
 9
 10
 11
 12
 13
 14
 15
 16
 17
 18
 19
 20
 21
 22
 23
 24
 25
 26
 27
 28
 29
 30
 31
 32
 33
 34
 35
 36
 37
 38
 39
POINT_DATA 40
FIELD FieldData 1
ReceiverID 1 40 int
 0
 1
 2
 3
 4
 5
 6
 7
 8
 9
 10
 11
 12
 13
 14
 15
 16
 17
 18
 19
 20
 21
 22
 23
 24
 25
 26
 27
 28
 29
 30
 31
 32
 33
 34
 35
 36
 37
 38
 39
