# vtk DataFile Version 2.0
Ray Path Visualization
ASCII
DATASET POLYDATA

POINTS 1 float
 -0.6 0 3
VERTICES 1 2
1
 0
POINT_DATA 1
FIELD FieldData 4
ReceiverID 1 1 int
 0
Eabs 1 1 double
 3.70965
EdB 1 1 double
 131.387
Phase 1 1 double
 0.87259
